Program Version,EnergyPlus, Version 9.6.0-f420c06a69, YMD=2024.11.06 09:08
1,5,Environment Title[],Latitude[deg],Longitude[deg],Time Zone[],Elevation[m]
2,8,Day of Simulation[],Month[],Day of Month[],DST Indicator[1=yes 0=no],Hour[],StartMinute[],EndMinute[],DayType
3,5,Cumulative Day of Simulation[],Month[],Day of Month[],DST Indicator[1=yes 0=no],DayType  ! When Daily Meters Requested
4,2,Cumulative Days of Simulation[],Month[]  ! When Monthly Meters Requested
5,1,Cumulative Days of Simulation[] ! When Run Period Meters Requested
6,1,Calendar Year of Simulation[] ! When Annual Meters Requested
65,1,Electricity:Facility [J] !Hourly
309,1,InteriorEquipment:Electricity [J] !Hourly
113,1,InteriorLights:Electricity [J] !Hourly
66,7,Electricity:Facility [J] !Daily [Value,Min,Hour,Minute,Max,Hour,Minute]
310,7,InteriorEquipment:Electricity [J] !Daily [Value,Min,Hour,Minute,Max,Hour,Minute]
114,7,InteriorLights:Electricity [J] !Daily [Value,Min,Hour,Minute,Max,Hour,Minute]
67,9,Electricity:Facility [J] !Monthly [Value,Min,Day,Hour,Minute,Max,Day,Hour,Minute]
311,9,InteriorEquipment:Electricity [J] !Monthly [Value,Min,Day,Hour,Minute,Max,Day,Hour,Minute]
115,9,InteriorLights:Electricity [J] !Monthly [Value,Min,Day,Hour,Minute,Max,Day,Hour,Minute]
69,11,Electricity:Facility [J] !RunPeriod [Value,Min,Month,Day,Hour,Minute,Max,Month,Day,Hour,Minute]
313,11,InteriorEquipment:Electricity [J] !RunPeriod [Value,Min,Month,Day,Hour,Minute,Max,Month,Day,Hour,Minute]
117,11,InteriorLights:Electricity [J] !RunPeriod [Value,Min,Month,Day,Hour,Minute,Max,Month,Day,Hour,Minute]
2357,1,DistrictCooling:Facility [J] !Hourly
1991,1,DistrictHeating:Facility [J] !Hourly
2524,1,Carbon Equivalent:Facility [kg] !Hourly
2358,7,DistrictCooling:Facility [J] !Daily [Value,Min,Hour,Minute,Max,Hour,Minute]
1992,7,DistrictHeating:Facility [J] !Daily [Value,Min,Hour,Minute,Max,Hour,Minute]
2525,7,Carbon Equivalent:Facility [kg] !Daily [Value,Min,Hour,Minute,Max,Hour,Minute]
2359,9,DistrictCooling:Facility [J] !Monthly [Value,Min,Day,Hour,Minute,Max,Day,Hour,Minute]
1993,9,DistrictHeating:Facility [J] !Monthly [Value,Min,Day,Hour,Minute,Max,Day,Hour,Minute]
2526,9,Carbon Equivalent:Facility [kg] !Monthly [Value,Min,Day,Hour,Minute,Max,Day,Hour,Minute]
2361,11,DistrictCooling:Facility [J] !RunPeriod [Value,Min,Month,Day,Hour,Minute,Max,Month,Day,Hour,Minute]
1995,11,DistrictHeating:Facility [J] !RunPeriod [Value,Min,Month,Day,Hour,Minute,Max,Month,Day,Hour,Minute]
2528,11,Carbon Equivalent:Facility [kg] !RunPeriod [Value,Min,Month,Day,Hour,Minute,Max,Month,Day,Hour,Minute]
End of Data Dictionary
1,UNTITLED (01-01:31-12),  45.18,   7.65,   1.00, 282.00
2,1, 1, 1, 0, 1, 0.00,60.00,Sunday
65,514247.77799999993
113,0.0
309,514247.77799999993
1991,14085165.517089305
2357,0.0
2524,0.0
2,1, 1, 1, 0, 2, 0.00,60.00,Sunday
65,514247.77799999993
113,0.0
309,514247.77799999993
1991,14953447.12603007
2357,0.0
2524,0.0
2,1, 1, 1, 0, 3, 0.00,60.00,Sunday
65,514247.77799999993
113,0.0
309,514247.77799999993
1991,15724740.421214031
2357,0.0
2524,0.0
2,1, 1, 1, 0, 4, 0.00,60.00,Sunday
65,514247.77799999993
113,0.0
309,514247.77799999993
1991,16558423.526664421
2357,0.0
2524,0.0
2,1, 1, 1, 0, 5, 0.00,60.00,Sunday
65,514247.77799999993
113,0.0
309,514247.77799999993
1991,17384635.18219173
2357,0.0
2524,0.0
2,1, 1, 1, 0, 6, 0.00,60.00,Sunday
65,514247.77799999993
113,0.0
309,514247.77799999993
1991,18123836.89747723
2357,0.0
2524,0.0
2,1, 1, 1, 0, 7, 0.00,60.00,Sunday
65,514247.77799999993
113,0.0
309,514247.77799999993
1991,18793210.41483216
2357,0.0
2524,0.0
2,1, 1, 1, 0, 8, 0.00,60.00,Sunday
65,514247.77799999993
113,0.0
309,514247.77799999993
1991,19091966.426053483
2357,0.0
2524,0.0
2,1, 1, 1, 0, 9, 0.00,60.00,Sunday
65,514247.77799999993
113,0.0
309,514247.77799999993
1991,18336704.66179448
2357,0.0
2524,0.0
2,1, 1, 1, 0,10, 0.00,60.00,Sunday
65,514247.77799999993
113,0.0
309,514247.77799999993
1991,15963865.115853928
2357,0.0
2524,0.0
2,1, 1, 1, 0,11, 0.00,60.00,Sunday
65,514247.77799999993
113,0.0
309,514247.77799999993
1991,12020862.64469814
2357,0.0
2524,0.0
2,1, 1, 1, 0,12, 0.00,60.00,Sunday
65,514247.77799999993
113,0.0
309,514247.77799999993
1991,7748627.502067586
2357,0.0
2524,0.0
2,1, 1, 1, 0,13, 0.00,60.00,Sunday
65,514247.77799999993
113,0.0
309,514247.77799999993
1991,4909323.311117313
2357,0.0
2524,0.0
2,1, 1, 1, 0,14, 0.00,60.00,Sunday
65,514247.77799999993
113,0.0
309,514247.77799999993
1991,2594681.432039749
2357,0.0
2524,0.0
2,1, 1, 1, 0,15, 0.00,60.00,Sunday
65,514247.77799999993
113,0.0
309,514247.77799999993
1991,1310474.2647654947
2357,0.0
2524,0.0
2,1, 1, 1, 0,16, 0.00,60.00,Sunday
65,514247.77799999993
113,0.0
309,514247.77799999993
1991,1154755.4672453166
2357,0.0
2524,0.0
2,1, 1, 1, 0,17, 0.00,60.00,Sunday
65,514247.77799999993
113,0.0
309,514247.77799999993
1991,1727456.8984806896
2357,0.0
2524,0.0
2,1, 1, 1, 0,18, 0.00,60.00,Sunday
65,514247.77799999993
113,0.0
309,514247.77799999993
1991,3427608.414031796
2357,0.0
2524,0.0
2,1, 1, 1, 0,19, 0.00,60.00,Sunday
65,514247.77799999993
113,0.0
309,514247.77799999993
1991,5661417.079941886
2357,0.0
2524,0.0
2,1, 1, 1, 0,20, 0.00,60.00,Sunday
65,514247.77799999993
113,0.0
309,514247.77799999993
1991,8191717.173873732
2357,0.0
2524,0.0
2,1, 1, 1, 0,21, 0.00,60.00,Sunday
65,514247.77799999993
113,0.0
309,514247.77799999993
1991,10144389.064002292
2357,0.0
2524,0.0
2,1, 1, 1, 0,22, 0.00,60.00,Sunday
65,514247.77799999993
113,0.0
309,514247.77799999993
1991,11560915.420201758
2357,0.0
2524,0.0
2,1, 1, 1, 0,23, 0.00,60.00,Sunday
65,514247.77799999993
113,0.0
309,514247.77799999993
1991,12507663.645849787
2357,0.0
2524,0.0
2,1, 1, 1, 0,24, 0.00,60.00,Sunday
65,514247.77799999993
113,0.0
309,514247.77799999993
1991,13221880.985680815
2357,0.0
2524,0.0
3,1, 1, 1, 0,Sunday
66,12341946.67199999,128561.94449999998, 1,15,128561.94449999998, 1,15
114,0.0,0.0, 1,15,0.0, 1,15
310,12341946.67199999,128561.94449999998, 1,15,128561.94449999998, 1,15
1992,265197768.59319717,280496.08215383894,16,15,4777273.232913487, 8,45
2358,0.0,0.0, 1,15,0.0, 1,15
2525,0.0,0.0, 1,15,0.0, 1,15
2,2, 1, 2, 0, 1, 0.00,60.00,Monday
65,514247.77799999993
113,0.0
309,514247.77799999993
1991,13645953.856618486
2357,0.0
2524,0.0
2,2, 1, 2, 0, 2, 0.00,60.00,Monday
65,514247.77799999993
113,0.0
309,514247.77799999993
1991,13837700.95354006
2357,0.0
2524,0.0
2,2, 1, 2, 0, 3, 0.00,60.00,Monday
65,514247.77799999993
113,0.0
309,514247.77799999993
1991,13944276.421256732
2357,0.0
2524,0.0
2,2, 1, 2, 0, 4, 0.00,60.00,Monday
65,514247.77799999993
113,0.0
309,514247.77799999993
1991,14089468.087083742
2357,0.0
2524,0.0
2,2, 1, 2, 0, 5, 0.00,60.00,Monday
65,514247.77799999993
113,0.0
309,514247.77799999993
1991,14131939.619543415
2357,0.0
2524,0.0
2,2, 1, 2, 0, 6, 0.00,60.00,Monday
65,514247.77799999993
113,0.0
309,514247.77799999993
1991,88516679.99574302
2357,0.0
2524,0.0
2,2, 1, 2, 0, 7, 0.00,60.00,Monday
65,514247.77799999993
113,0.0
309,514247.77799999993
1991,80210058.854035
2357,0.0
2524,0.0
2,2, 1, 2, 0, 8, 0.00,60.00,Monday
65,25733699.999999996
113,16199999.999999996
309,9533700.0
1991,53424928.251353
2357,0.0
2524,0.0
2,2, 1, 2, 0, 9, 0.00,60.00,Monday
65,25733699.999999996
113,16199999.999999996
309,9533700.0
1991,47179890.67297911
2357,0.0
2524,0.0
2,2, 1, 2, 0,10, 0.00,60.00,Monday
65,25733699.999999996
113,16199999.999999996
309,9533700.0
1991,48365502.95242911
2357,0.0
2524,0.0
2,2, 1, 2, 0,11, 0.00,60.00,Monday
65,25733699.999999996
113,16199999.999999996
309,9533700.0
1991,41862469.79672801
2357,0.0
2524,0.0
2,2, 1, 2, 0,12, 0.00,60.00,Monday
65,25733699.999999996
113,16199999.999999996
309,9533700.0
1991,36309921.536400035
2357,0.0
2524,0.0
2,2, 1, 2, 0,13, 0.00,60.00,Monday
65,25733699.999999996
113,16199999.999999996
309,9533700.0
1991,28023067.726146102
2357,0.0
2524,0.0
2,2, 1, 2, 0,14, 0.00,60.00,Monday
65,25733699.999999996
113,16199999.999999996
309,9533700.0
1991,25210772.57342451
2357,0.0
2524,0.0
2,2, 1, 2, 0,15, 0.00,60.00,Monday
65,25733699.999999996
113,16199999.999999996
309,9533700.0
1991,27458590.248549506
2357,0.0
2524,0.0
2,2, 1, 2, 0,16, 0.00,60.00,Monday
65,25733699.999999996
113,16199999.999999996
309,9533700.0
1991,27228559.320133418
2357,0.0
2524,0.0
2,2, 1, 2, 0,17, 0.00,60.00,Monday
65,25733699.999999996
113,16199999.999999996
309,9533700.0
1991,27812099.314185992
2357,0.0
2524,0.0
2,2, 1, 2, 0,18, 0.00,60.00,Monday
65,25733699.999999996
113,16199999.999999996
309,9533700.0
1991,21034926.1681301
2357,0.0
2524,0.0
2,2, 1, 2, 0,19, 0.00,60.00,Monday
65,25733699.999999996
113,16199999.999999996
309,9533700.0
1991,18521969.570266772
2357,0.0
2524,0.0
2,2, 1, 2, 0,20, 0.00,60.00,Monday
65,9533700.0
113,0.0
309,9533700.0
1991,0.0
2357,0.0
2524,0.0
2,2, 1, 2, 0,21, 0.00,60.00,Monday
65,514247.77799999993
113,0.0
309,514247.77799999993
1991,0.0
2357,0.0
2524,0.0
2,2, 1, 2, 0,22, 0.00,60.00,Monday
65,514247.77799999993
113,0.0
309,514247.77799999993
1991,0.0
2357,0.0
2524,0.0
2,2, 1, 2, 0,23, 0.00,60.00,Monday
65,514247.77799999993
113,0.0
309,514247.77799999993
1991,0.0
2357,0.0
2524,0.0
2,2, 1, 2, 0,24, 0.00,60.00,Monday
65,514247.77799999993
113,0.0
309,514247.77799999993
1991,0.0
2357,0.0
2524,0.0
3,2, 1, 2, 0,Monday
66,323994825.55800045,128561.94449999998, 1,15,6433424.999999999, 8,15
114,194399999.99999997,0.0, 1,15,4049999.999999999, 8,15
310,129594825.558,128561.94449999998, 1,15,2383425.0, 8,15
1992,640808775.9185464,0.0,20,15,22129169.99893576, 6,30
2358,0.0,0.0, 1,15,0.0, 1,15
2525,0.0,0.0, 1,15,0.0, 1,15
2,3, 1, 3, 0, 1, 0.00,60.00,Tuesday
65,514247.77799999993
113,0.0
309,514247.77799999993
1991,0.0
2357,0.0
2524,0.0
2,3, 1, 3, 0, 2, 0.00,60.00,Tuesday
65,514247.77799999993
113,0.0
309,514247.77799999993
1991,0.0
2357,0.0
2524,0.0
2,3, 1, 3, 0, 3, 0.00,60.00,Tuesday
65,514247.77799999993
113,0.0
309,514247.77799999993
1991,472637.5971426934
2357,0.0
2524,0.0
2,3, 1, 3, 0, 4, 0.00,60.00,Tuesday
65,514247.77799999993
113,0.0
309,514247.77799999993
1991,2657840.7890710104
2357,0.0
2524,0.0
2,3, 1, 3, 0, 5, 0.00,60.00,Tuesday
65,514247.77799999993
113,0.0
309,514247.77799999993
1991,4710632.030490261
2357,0.0
2524,0.0
2,3, 1, 3, 0, 6, 0.00,60.00,Tuesday
65,514247.77799999993
113,0.0
309,514247.77799999993
1991,84685014.64662793
2357,0.0
2524,0.0
2,3, 1, 3, 0, 7, 0.00,60.00,Tuesday
65,514247.77799999993
113,0.0
309,514247.77799999993
1991,68355204.0275298
2357,0.0
2524,0.0
2,3, 1, 3, 0, 8, 0.00,60.00,Tuesday
65,25733699.999999996
113,16199999.999999996
309,9533700.0
1991,47565274.314241424
2357,0.0
2524,0.0
2,3, 1, 3, 0, 9, 0.00,60.00,Tuesday
65,25733699.999999996
113,16199999.999999996
309,9533700.0
1991,44216800.99648498
2357,0.0
2524,0.0
2,3, 1, 3, 0,10, 0.00,60.00,Tuesday
65,25733699.999999996
113,16199999.999999996
309,9533700.0
1991,46195754.07675776
2357,0.0
2524,0.0
2,3, 1, 3, 0,11, 0.00,60.00,Tuesday
65,25733699.999999996
113,16199999.999999996
309,9533700.0
1991,36938415.81028177
2357,0.0
2524,0.0
2,3, 1, 3, 0,12, 0.00,60.00,Tuesday
65,25733699.999999996
113,16199999.999999996
309,9533700.0
1991,27694557.47807867
2357,0.0
2524,0.0
2,3, 1, 3, 0,13, 0.00,60.00,Tuesday
65,25733699.999999996
113,16199999.999999996
309,9533700.0
1991,15964637.977266205
2357,0.0
2524,0.0
2,3, 1, 3, 0,14, 0.00,60.00,Tuesday
65,25733699.999999996
113,16199999.999999996
309,9533700.0
1991,10589343.77974062
2357,0.0
2524,0.0
2,3, 1, 3, 0,15, 0.00,60.00,Tuesday
65,25733699.999999996
113,16199999.999999996
309,9533700.0
1991,10886829.174065169
2357,0.0
2524,0.0
2,3, 1, 3, 0,16, 0.00,60.00,Tuesday
65,25733699.999999996
113,16199999.999999996
309,9533700.0
1991,11842023.046737066
2357,0.0
2524,0.0
2,3, 1, 3, 0,17, 0.00,60.00,Tuesday
65,25733699.999999996
113,16199999.999999996
309,9533700.0
1991,15057749.038883837
2357,0.0
2524,0.0
2,3, 1, 3, 0,18, 0.00,60.00,Tuesday
65,25733699.999999996
113,16199999.999999996
309,9533700.0
1991,12403887.95170989
2357,0.0
2524,0.0
2,3, 1, 3, 0,19, 0.00,60.00,Tuesday
65,25733699.999999996
113,16199999.999999996
309,9533700.0
1991,12093204.741130408
2357,0.0
2524,0.0
2,3, 1, 3, 0,20, 0.00,60.00,Tuesday
65,9533700.0
113,0.0
309,9533700.0
1991,0.0
2357,0.0
2524,0.0
2,3, 1, 3, 0,21, 0.00,60.00,Tuesday
65,514247.77799999993
113,0.0
309,514247.77799999993
1991,0.0
2357,0.0
2524,0.0
2,3, 1, 3, 0,22, 0.00,60.00,Tuesday
65,514247.77799999993
113,0.0
309,514247.77799999993
1991,0.0
2357,0.0
2524,0.0
2,3, 1, 3, 0,23, 0.00,60.00,Tuesday
65,514247.77799999993
113,0.0
309,514247.77799999993
1991,0.0
2357,0.0
2524,0.0
2,3, 1, 3, 0,24, 0.00,60.00,Tuesday
65,514247.77799999993
113,0.0
309,514247.77799999993
1991,0.0
2357,0.0
2524,0.0
3,3, 1, 3, 0,Tuesday
66,323994825.55800045,128561.94449999998, 1,15,6433424.999999999, 8,15
114,194399999.99999997,0.0, 1,15,4049999.999999999, 8,15
310,129594825.558,128561.94449999998, 1,15,2383425.0, 8,15
1992,452329807.4762396,0.0, 1,15,22129169.99893576, 6,30
2358,0.0,0.0, 1,15,0.0, 1,15
2525,0.0,0.0, 1,15,0.0, 1,15
2,4, 1, 4, 0, 1, 0.00,60.00,Wednesday
65,514247.77799999993
113,0.0
309,514247.77799999993
1991,0.0
2357,0.0
2524,0.0
2,4, 1, 4, 0, 2, 0.00,60.00,Wednesday
65,514247.77799999993
113,0.0
309,514247.77799999993
1991,0.0
2357,0.0
2524,0.0
2,4, 1, 4, 0, 3, 0.00,60.00,Wednesday
65,514247.77799999993
113,0.0
309,514247.77799999993
1991,1158530.0287981564
2357,0.0
2524,0.0
2,4, 1, 4, 0, 4, 0.00,60.00,Wednesday
65,514247.77799999993
113,0.0
309,514247.77799999993
1991,4282367.801677907
2357,0.0
2524,0.0
2,4, 1, 4, 0, 5, 0.00,60.00,Wednesday
65,514247.77799999993
113,0.0
309,514247.77799999993
1991,7133414.80247706
2357,0.0
2524,0.0
2,4, 1, 4, 0, 6, 0.00,60.00,Wednesday
65,514247.77799999993
113,0.0
309,514247.77799999993
1991,87372288.3560184
2357,0.0
2524,0.0
2,4, 1, 4, 0, 7, 0.00,60.00,Wednesday
65,514247.77799999993
113,0.0
309,514247.77799999993
1991,71220784.69486943
2357,0.0
2524,0.0
2,4, 1, 4, 0, 8, 0.00,60.00,Wednesday
65,25733699.999999996
113,16199999.999999996
309,9533700.0
1991,50336792.38958614
2357,0.0
2524,0.0
2,4, 1, 4, 0, 9, 0.00,60.00,Wednesday
65,25733699.999999996
113,16199999.999999996
309,9533700.0
1991,46863458.79963909
2357,0.0
2524,0.0
2,4, 1, 4, 0,10, 0.00,60.00,Wednesday
65,25733699.999999996
113,16199999.999999996
309,9533700.0
1991,49065218.707876936
2357,0.0
2524,0.0
2,4, 1, 4, 0,11, 0.00,60.00,Wednesday
65,25733699.999999996
113,16199999.999999996
309,9533700.0
1991,39302978.775250874
2357,0.0
2524,0.0
2,4, 1, 4, 0,12, 0.00,60.00,Wednesday
65,25733699.999999996
113,16199999.999999996
309,9533700.0
1991,29882963.396783568
2357,0.0
2524,0.0
2,4, 1, 4, 0,13, 0.00,60.00,Wednesday
65,25733699.999999996
113,16199999.999999996
309,9533700.0
1991,17917072.08675713
2357,0.0
2524,0.0
2,4, 1, 4, 0,14, 0.00,60.00,Wednesday
65,25733699.999999996
113,16199999.999999996
309,9533700.0
1991,12842880.915165538
2357,0.0
2524,0.0
2,4, 1, 4, 0,15, 0.00,60.00,Wednesday
65,25733699.999999996
113,16199999.999999996
309,9533700.0
1991,13863374.111664169
2357,0.0
2524,0.0
2,4, 1, 4, 0,16, 0.00,60.00,Wednesday
65,25733699.999999996
113,16199999.999999996
309,9533700.0
1991,14661600.232429657
2357,0.0
2524,0.0
2,4, 1, 4, 0,17, 0.00,60.00,Wednesday
65,25733699.999999996
113,16199999.999999996
309,9533700.0
1991,17996869.45824413
2357,0.0
2524,0.0
2,4, 1, 4, 0,18, 0.00,60.00,Wednesday
65,25733699.999999996
113,16199999.999999996
309,9533700.0
1991,14967475.030800123
2357,0.0
2524,0.0
2,4, 1, 4, 0,19, 0.00,60.00,Wednesday
65,25733699.999999996
113,16199999.999999996
309,9533700.0
1991,14577513.881665688
2357,0.0
2524,0.0
2,4, 1, 4, 0,20, 0.00,60.00,Wednesday
65,9533700.0
113,0.0
309,9533700.0
1991,0.0
2357,0.0
2524,0.0
2,4, 1, 4, 0,21, 0.00,60.00,Wednesday
65,514247.77799999993
113,0.0
309,514247.77799999993
1991,0.0
2357,0.0
2524,0.0
2,4, 1, 4, 0,22, 0.00,60.00,Wednesday
65,514247.77799999993
113,0.0
309,514247.77799999993
1991,0.0
2357,0.0
2524,0.0
2,4, 1, 4, 0,23, 0.00,60.00,Wednesday
65,514247.77799999993
113,0.0
309,514247.77799999993
1991,0.0
2357,0.0
2524,0.0
2,4, 1, 4, 0,24, 0.00,60.00,Wednesday
65,514247.77799999993
113,0.0
309,514247.77799999993
1991,0.0
2357,0.0
2524,0.0
3,4, 1, 4, 0,Wednesday
66,323994825.55800045,128561.94449999998, 1,15,6433424.999999999, 8,15
114,194399999.99999997,0.0, 1,15,4049999.999999999, 8,15
310,129594825.558,128561.94449999998, 1,15,2383425.0, 8,15
1992,493445583.46970403,0.0, 1,15,22129169.99893575, 6,30
2358,0.0,0.0, 1,15,0.0, 1,15
2525,0.0,0.0, 1,15,0.0, 1,15
2,5, 1, 5, 0, 1, 0.00,60.00,Thursday
65,514247.77799999993
113,0.0
309,514247.77799999993
1991,1143.3162845894913
2357,0.0
2524,0.0
2,5, 1, 5, 0, 2, 0.00,60.00,Thursday
65,514247.77799999993
113,0.0
309,514247.77799999993
1991,1864436.7901041459
2357,0.0
2524,0.0
2,5, 1, 5, 0, 3, 0.00,60.00,Thursday
65,514247.77799999993
113,0.0
309,514247.77799999993
1991,5474800.855683378
2357,0.0
2524,0.0
2,5, 1, 5, 0, 4, 0.00,60.00,Thursday
65,514247.77799999993
113,0.0
309,514247.77799999993
1991,8357923.688106822
2357,0.0
2524,0.0
2,5, 1, 5, 0, 5, 0.00,60.00,Thursday
65,514247.77799999993
113,0.0
309,514247.77799999993
1991,10246693.66046601
2357,0.0
2524,0.0
2,5, 1, 5, 0, 6, 0.00,60.00,Thursday
65,514247.77799999993
113,0.0
309,514247.77799999993
1991,88389980.62706678
2357,0.0
2524,0.0
2,5, 1, 5, 0, 7, 0.00,60.00,Thursday
65,514247.77799999993
113,0.0
309,514247.77799999993
1991,75747621.9213779
2357,0.0
2524,0.0
2,5, 1, 5, 0, 8, 0.00,60.00,Thursday
65,25733699.999999996
113,16199999.999999996
309,9533700.0
1991,53574099.17753954
2357,0.0
2524,0.0
2,5, 1, 5, 0, 9, 0.00,60.00,Thursday
65,25733699.999999996
113,16199999.999999996
309,9533700.0
1991,50498683.872307524
2357,0.0
2524,0.0
2,5, 1, 5, 0,10, 0.00,60.00,Thursday
65,25733699.999999996
113,16199999.999999996
309,9533700.0
1991,55005637.53649802
2357,0.0
2524,0.0
2,5, 1, 5, 0,11, 0.00,60.00,Thursday
65,25733699.999999996
113,16199999.999999996
309,9533700.0
1991,47043117.50359841
2357,0.0
2524,0.0
2,5, 1, 5, 0,12, 0.00,60.00,Thursday
65,25733699.999999996
113,16199999.999999996
309,9533700.0
1991,39442530.27782123
2357,0.0
2524,0.0
2,5, 1, 5, 0,13, 0.00,60.00,Thursday
65,25733699.999999996
113,16199999.999999996
309,9533700.0
1991,27838310.74344661
2357,0.0
2524,0.0
2,5, 1, 5, 0,14, 0.00,60.00,Thursday
65,25733699.999999996
113,16199999.999999996
309,9533700.0
1991,23717357.355117694
2357,0.0
2524,0.0
2,5, 1, 5, 0,15, 0.00,60.00,Thursday
65,25733699.999999996
113,16199999.999999996
309,9533700.0
1991,26457158.254754353
2357,0.0
2524,0.0
2,5, 1, 5, 0,16, 0.00,60.00,Thursday
65,25733699.999999996
113,16199999.999999996
309,9533700.0
1991,27329040.085268132
2357,0.0
2524,0.0
2,5, 1, 5, 0,17, 0.00,60.00,Thursday
65,25733699.999999996
113,16199999.999999996
309,9533700.0
1991,29646323.063205265
2357,0.0
2524,0.0
2,5, 1, 5, 0,18, 0.00,60.00,Thursday
65,25733699.999999996
113,16199999.999999996
309,9533700.0
1991,22687092.660152316
2357,0.0
2524,0.0
2,5, 1, 5, 0,19, 0.00,60.00,Thursday
65,25733699.999999996
113,16199999.999999996
309,9533700.0
1991,19794675.74590704
2357,0.0
2524,0.0
2,5, 1, 5, 0,20, 0.00,60.00,Thursday
65,9533700.0
113,0.0
309,9533700.0
1991,0.0
2357,0.0
2524,0.0
2,5, 1, 5, 0,21, 0.00,60.00,Thursday
65,514247.77799999993
113,0.0
309,514247.77799999993
1991,0.0
2357,0.0
2524,0.0
2,5, 1, 5, 0,22, 0.00,60.00,Thursday
65,514247.77799999993
113,0.0
309,514247.77799999993
1991,0.0
2357,0.0
2524,0.0
2,5, 1, 5, 0,23, 0.00,60.00,Thursday
65,514247.77799999993
113,0.0
309,514247.77799999993
1991,0.0
2357,0.0
2524,0.0
2,5, 1, 5, 0,24, 0.00,60.00,Thursday
65,514247.77799999993
113,0.0
309,514247.77799999993
1991,0.0
2357,0.0
2524,0.0
3,5, 1, 5, 0,Thursday
66,323994825.55800045,128561.94449999998, 1,15,6433424.999999999, 8,15
114,194399999.99999997,0.0, 1,15,4049999.999999999, 8,15
310,129594825.558,128561.94449999998, 1,15,2383425.0, 8,15
1992,613116627.1347057,0.0, 1,15,22129169.998935755, 6,15
2358,0.0,0.0, 1,15,0.0, 1,15
2525,0.0,0.0, 1,15,0.0, 1,15
2,6, 1, 6, 0, 1, 0.00,60.00,Friday
65,514247.77799999993
113,0.0
309,514247.77799999993
1991,479861.9647827711
2357,0.0
2524,0.0
2,6, 1, 6, 0, 2, 0.00,60.00,Friday
65,514247.77799999993
113,0.0
309,514247.77799999993
1991,3567693.1578412736
2357,0.0
2524,0.0
2,6, 1, 6, 0, 3, 0.00,60.00,Friday
65,514247.77799999993
113,0.0
309,514247.77799999993
1991,6870218.7758395765
2357,0.0
2524,0.0
2,6, 1, 6, 0, 4, 0.00,60.00,Friday
65,514247.77799999993
113,0.0
309,514247.77799999993
1991,9410356.619515078
2357,0.0
2524,0.0
2,6, 1, 6, 0, 5, 0.00,60.00,Friday
65,514247.77799999993
113,0.0
309,514247.77799999993
1991,11753083.922516957
2357,0.0
2524,0.0
2,6, 1, 6, 0, 6, 0.00,60.00,Friday
65,514247.77799999993
113,0.0
309,514247.77799999993
1991,88516679.995743
2357,0.0
2524,0.0
2,6, 1, 6, 0, 7, 0.00,60.00,Friday
65,514247.77799999993
113,0.0
309,514247.77799999993
1991,80321319.6730951
2357,0.0
2524,0.0
2,6, 1, 6, 0, 8, 0.00,60.00,Friday
65,25733699.999999996
113,16199999.999999996
309,9533700.0
1991,58132785.60579266
2357,0.0
2524,0.0
2,6, 1, 6, 0, 9, 0.00,60.00,Friday
65,25733699.999999996
113,16199999.999999996
309,9533700.0
1991,54582613.54948574
2357,0.0
2524,0.0
2,6, 1, 6, 0,10, 0.00,60.00,Friday
65,25733699.999999996
113,16199999.999999996
309,9533700.0
1991,57736905.583375014
2357,0.0
2524,0.0
2,6, 1, 6, 0,11, 0.00,60.00,Friday
65,25733699.999999996
113,16199999.999999996
309,9533700.0
1991,47200848.59288831
2357,0.0
2524,0.0
2,6, 1, 6, 0,12, 0.00,60.00,Friday
65,25733699.999999996
113,16199999.999999996
309,9533700.0
1991,36760753.33249278
2357,0.0
2524,0.0
2,6, 1, 6, 0,13, 0.00,60.00,Friday
65,25733699.999999996
113,16199999.999999996
309,9533700.0
1991,23190063.756545592
2357,0.0
2524,0.0
2,6, 1, 6, 0,14, 0.00,60.00,Friday
65,25733699.999999996
113,16199999.999999996
309,9533700.0
1991,17329305.88530696
2357,0.0
2524,0.0
2,6, 1, 6, 0,15, 0.00,60.00,Friday
65,25733699.999999996
113,16199999.999999996
309,9533700.0
1991,17966561.045698967
2357,0.0
2524,0.0
2,6, 1, 6, 0,16, 0.00,60.00,Friday
65,25733699.999999996
113,16199999.999999996
309,9533700.0
1991,18043912.283240303
2357,0.0
2524,0.0
2,6, 1, 6, 0,17, 0.00,60.00,Friday
65,25733699.999999996
113,16199999.999999996
309,9533700.0
1991,20961822.94681876
2357,0.0
2524,0.0
2,6, 1, 6, 0,18, 0.00,60.00,Friday
65,25733699.999999996
113,16199999.999999996
309,9533700.0
1991,17601082.017068878
2357,0.0
2524,0.0
2,6, 1, 6, 0,19, 0.00,60.00,Friday
65,25733699.999999996
113,16199999.999999996
309,9533700.0
1991,16998441.00706922
2357,0.0
2524,0.0
2,6, 1, 6, 0,20, 0.00,60.00,Friday
65,9533700.0
113,0.0
309,9533700.0
1991,0.0
2357,0.0
2524,0.0
2,6, 1, 6, 0,21, 0.00,60.00,Friday
65,514247.77799999993
113,0.0
309,514247.77799999993
1991,0.0
2357,0.0
2524,0.0
2,6, 1, 6, 0,22, 0.00,60.00,Friday
65,514247.77799999993
113,0.0
309,514247.77799999993
1991,0.0
2357,0.0
2524,0.0
2,6, 1, 6, 0,23, 0.00,60.00,Friday
65,514247.77799999993
113,0.0
309,514247.77799999993
1991,0.0
2357,0.0
2524,0.0
2,6, 1, 6, 0,24, 0.00,60.00,Friday
65,514247.77799999993
113,0.0
309,514247.77799999993
1991,0.0
2357,0.0
2524,0.0
3,6, 1, 6, 0,Friday
66,323994825.55800045,128561.94449999998, 1,15,6433424.999999999, 8,15
114,194399999.99999997,0.0, 1,15,4049999.999999999, 8,15
310,129594825.558,128561.94449999998, 1,15,2383425.0, 8,15
1992,587424309.715117,0.0, 1,15,22129169.99893576, 6,30
2358,0.0,0.0, 1,15,0.0, 1,15
2525,0.0,0.0, 1,15,0.0, 1,15
2,7, 1, 7, 0, 1, 0.00,60.00,Saturday
65,514247.77799999993
113,0.0
309,514247.77799999993
1991,0.0
2357,0.0
2524,0.0
2,7, 1, 7, 0, 2, 0.00,60.00,Saturday
65,514247.77799999993
113,0.0
309,514247.77799999993
1991,124409.65950485515
2357,0.0
2524,0.0
2,7, 1, 7, 0, 3, 0.00,60.00,Saturday
65,514247.77799999993
113,0.0
309,514247.77799999993
1991,807351.1911000276
2357,0.0
2524,0.0
2,7, 1, 7, 0, 4, 0.00,60.00,Saturday
65,514247.77799999993
113,0.0
309,514247.77799999993
1991,1164027.671905032
2357,0.0
2524,0.0
2,7, 1, 7, 0, 5, 0.00,60.00,Saturday
65,514247.77799999993
113,0.0
309,514247.77799999993
1991,1979061.5503119966
2357,0.0
2524,0.0
2,7, 1, 7, 0, 6, 0.00,60.00,Saturday
65,514247.77799999993
113,0.0
309,514247.77799999993
1991,4322357.596809756
2357,0.0
2524,0.0
2,7, 1, 7, 0, 7, 0.00,60.00,Saturday
65,514247.77799999993
113,0.0
309,514247.77799999993
1991,8098336.511781558
2357,0.0
2524,0.0
2,7, 1, 7, 0, 8, 0.00,60.00,Saturday
65,514247.77799999993
113,0.0
309,514247.77799999993
1991,11548039.806024373
2357,0.0
2524,0.0
2,7, 1, 7, 0, 9, 0.00,60.00,Saturday
65,514247.77799999993
113,0.0
309,514247.77799999993
1991,12997653.369628485
2357,0.0
2524,0.0
2,7, 1, 7, 0,10, 0.00,60.00,Saturday
65,514247.77799999993
113,0.0
309,514247.77799999993
1991,11852879.677709576
2357,0.0
2524,0.0
2,7, 1, 7, 0,11, 0.00,60.00,Saturday
65,514247.77799999993
113,0.0
309,514247.77799999993
1991,9072060.891019879
2357,0.0
2524,0.0
2,7, 1, 7, 0,12, 0.00,60.00,Saturday
65,514247.77799999993
113,0.0
309,514247.77799999993
1991,6274530.3359017875
2357,0.0
2524,0.0
2,7, 1, 7, 0,13, 0.00,60.00,Saturday
65,514247.77799999993
113,0.0
309,514247.77799999993
1991,4246329.961417512
2357,0.0
2524,0.0
2,7, 1, 7, 0,14, 0.00,60.00,Saturday
65,514247.77799999993
113,0.0
309,514247.77799999993
1991,2264242.250608287
2357,0.0
2524,0.0
2,7, 1, 7, 0,15, 0.00,60.00,Saturday
65,514247.77799999993
113,0.0
309,514247.77799999993
1991,1171203.7887794657
2357,0.0
2524,0.0
2,7, 1, 7, 0,16, 0.00,60.00,Saturday
65,514247.77799999993
113,0.0
309,514247.77799999993
1991,1158306.4388599247
2357,0.0
2524,0.0
2,7, 1, 7, 0,17, 0.00,60.00,Saturday
65,514247.77799999993
113,0.0
309,514247.77799999993
1991,1984649.8341829667
2357,0.0
2524,0.0
2,7, 1, 7, 0,18, 0.00,60.00,Saturday
65,514247.77799999993
113,0.0
309,514247.77799999993
1991,4039998.536005697
2357,0.0
2524,0.0
2,7, 1, 7, 0,19, 0.00,60.00,Saturday
65,514247.77799999993
113,0.0
309,514247.77799999993
1991,7133050.684871118
2357,0.0
2524,0.0
2,7, 1, 7, 0,20, 0.00,60.00,Saturday
65,514247.77799999993
113,0.0
309,514247.77799999993
1991,10285316.483820263
2357,0.0
2524,0.0
2,7, 1, 7, 0,21, 0.00,60.00,Saturday
65,514247.77799999993
113,0.0
309,514247.77799999993
1991,12931852.043726468
2357,0.0
2524,0.0
2,7, 1, 7, 0,22, 0.00,60.00,Saturday
65,514247.77799999993
113,0.0
309,514247.77799999993
1991,15076978.326905716
2357,0.0
2524,0.0
2,7, 1, 7, 0,23, 0.00,60.00,Saturday
65,514247.77799999993
113,0.0
309,514247.77799999993
1991,16800774.464077342
2357,0.0
2524,0.0
2,7, 1, 7, 0,24, 0.00,60.00,Saturday
65,514247.77799999993
113,0.0
309,514247.77799999993
1991,18102999.566123486
2357,0.0
2524,0.0
3,7, 1, 7, 0,Saturday
66,12341946.67199999,128561.94449999998, 1,15,128561.94449999998, 1,15
114,0.0,0.0, 1,15,0.0, 1,15
310,12341946.67199999,128561.94449999998, 1,15,128561.94449999998, 1,15
1992,163436410.64107555,0.0, 1,15,4624416.405431729,24,60
2358,0.0,0.0, 1,15,0.0, 1,15
2525,0.0,0.0, 1,15,0.0, 1,15
2,8, 1, 8, 0, 1, 0.00,60.00,Sunday
65,514247.77799999993
113,0.0
309,514247.77799999993
1991,19047679.02952846
2357,0.0
2524,0.0
2,8, 1, 8, 0, 2, 0.00,60.00,Sunday
65,514247.77799999993
113,0.0
309,514247.77799999993
1991,19884396.627116114
2357,0.0
2524,0.0
2,8, 1, 8, 0, 3, 0.00,60.00,Sunday
65,514247.77799999993
113,0.0
309,514247.77799999993
1991,20792611.21538383
2357,0.0
2524,0.0
2,8, 1, 8, 0, 4, 0.00,60.00,Sunday
65,514247.77799999993
113,0.0
309,514247.77799999993
1991,21856284.35487061
2357,0.0
2524,0.0
2,8, 1, 8, 0, 5, 0.00,60.00,Sunday
65,514247.77799999993
113,0.0
309,514247.77799999993
1991,22900947.89355629
2357,0.0
2524,0.0
2,8, 1, 8, 0, 6, 0.00,60.00,Sunday
65,514247.77799999993
113,0.0
309,514247.77799999993
1991,23737748.65866085
2357,0.0
2524,0.0
2,8, 1, 8, 0, 7, 0.00,60.00,Sunday
65,514247.77799999993
113,0.0
309,514247.77799999993
1991,24530912.879883997
2357,0.0
2524,0.0
2,8, 1, 8, 0, 8, 0.00,60.00,Sunday
65,514247.77799999993
113,0.0
309,514247.77799999993
1991,25117321.182339717
2357,0.0
2524,0.0
2,8, 1, 8, 0, 9, 0.00,60.00,Sunday
65,514247.77799999993
113,0.0
309,514247.77799999993
1991,24689214.745508995
2357,0.0
2524,0.0
2,8, 1, 8, 0,10, 0.00,60.00,Sunday
65,514247.77799999993
113,0.0
309,514247.77799999993
1991,22444032.1325443
2357,0.0
2524,0.0
2,8, 1, 8, 0,11, 0.00,60.00,Sunday
65,514247.77799999993
113,0.0
309,514247.77799999993
1991,18398268.920989286
2357,0.0
2524,0.0
2,8, 1, 8, 0,12, 0.00,60.00,Sunday
65,514247.77799999993
113,0.0
309,514247.77799999993
1991,13664460.233579399
2357,0.0
2524,0.0
2,8, 1, 8, 0,13, 0.00,60.00,Sunday
65,514247.77799999993
113,0.0
309,514247.77799999993
1991,10249852.65903783
2357,0.0
2524,0.0
2,8, 1, 8, 0,14, 0.00,60.00,Sunday
65,514247.77799999993
113,0.0
309,514247.77799999993
1991,8619411.81589358
2357,0.0
2524,0.0
2,8, 1, 8, 0,15, 0.00,60.00,Sunday
65,514247.77799999993
113,0.0
309,514247.77799999993
1991,7644657.513323415
2357,0.0
2524,0.0