Program Version,EnergyPlus, Version 9.6.0-f420c06a69, YMD=2024.11.26 15:14
1,5,Environment Title[],Latitude[deg],Longitude[deg],Time Zone[],Elevation[m]
2,8,Day of Simulation[],Month[],Day of Month[],DST Indicator[1=yes 0=no],Hour[],StartMinute[],EndMinute[],DayType
3,5,Cumulative Day of Simulation[],Month[],Day of Month[],DST Indicator[1=yes 0=no],DayType  ! When Daily Meters Requested
4,2,Cumulative Days of Simulation[],Month[]  ! When Monthly Meters Requested
5,1,Cumulative Days of Simulation[] ! When Run Period Meters Requested
6,1,Calendar Year of Simulation[] ! When Annual Meters Requested
65,1,Electricity:Facility [J] !Hourly
309,1,InteriorEquipment:Electricity [J] !Hourly
113,1,InteriorLights:Electricity [J] !Hourly
66,7,Electricity:Facility [J] !Daily [Value,Min,Hour,Minute,Max,Hour,Minute]
310,7,InteriorEquipment:Electricity [J] !Daily [Value,Min,Hour,Minute,Max,Hour,Minute]
114,7,InteriorLights:Electricity [J] !Daily [Value,Min,Hour,Minute,Max,Hour,Minute]
67,9,Electricity:Facility [J] !Monthly [Value,Min,Day,Hour,Minute,Max,Day,Hour,Minute]
311,9,InteriorEquipment:Electricity [J] !Monthly [Value,Min,Day,Hour,Minute,Max,Day,Hour,Minute]
115,9,InteriorLights:Electricity [J] !Monthly [Value,Min,Day,Hour,Minute,Max,Day,Hour,Minute]
69,11,Electricity:Facility [J] !RunPeriod [Value,Min,Month,Day,Hour,Minute,Max,Month,Day,Hour,Minute]
313,11,InteriorEquipment:Electricity [J] !RunPeriod [Value,Min,Month,Day,Hour,Minute,Max,Month,Day,Hour,Minute]
117,11,InteriorLights:Electricity [J] !RunPeriod [Value,Min,Month,Day,Hour,Minute,Max,Month,Day,Hour,Minute]
1991,1,DistrictHeating:Facility [J] !Hourly
2357,1,DistrictCooling:Facility [J] !Hourly
2524,1,Carbon Equivalent:Facility [kg] !Hourly
2358,7,DistrictCooling:Facility [J] !Daily [Value,Min,Hour,Minute,Max,Hour,Minute]
1992,7,DistrictHeating:Facility [J] !Daily [Value,Min,Hour,Minute,Max,Hour,Minute]
2525,7,Carbon Equivalent:Facility [kg] !Daily [Value,Min,Hour,Minute,Max,Hour,Minute]
2359,9,DistrictCooling:Facility [J] !Monthly [Value,Min,Day,Hour,Minute,Max,Day,Hour,Minute]
1993,9,DistrictHeating:Facility [J] !Monthly [Value,Min,Day,Hour,Minute,Max,Day,Hour,Minute]
2526,9,Carbon Equivalent:Facility [kg] !Monthly [Value,Min,Day,Hour,Minute,Max,Day,Hour,Minute]
2361,11,DistrictCooling:Facility [J] !RunPeriod [Value,Min,Month,Day,Hour,Minute,Max,Month,Day,Hour,Minute]
1995,11,DistrictHeating:Facility [J] !RunPeriod [Value,Min,Month,Day,Hour,Minute,Max,Month,Day,Hour,Minute]
2528,11,Carbon Equivalent:Facility [kg] !RunPeriod [Value,Min,Month,Day,Hour,Minute,Max,Month,Day,Hour,Minute]
End of Data Dictionary
1,UNTITLED (01-01:31-12),  45.22,   7.65,   1.00, 287.00
2,1, 1, 1, 0, 1, 0.00,60.00,Sunday
65,514247.77799999993
113,0.0
309,514247.77799999993
1991,8782143.246856632
2357,0.0
2524,0.0
2,1, 1, 1, 0, 2, 0.00,60.00,Sunday
65,514247.77799999993
113,0.0
309,514247.77799999993
1991,9592804.109431349
2357,0.0
2524,0.0
2,1, 1, 1, 0, 3, 0.00,60.00,Sunday
65,514247.77799999993
113,0.0
309,514247.77799999993
1991,10185258.807916729
2357,0.0
2524,0.0
2,1, 1, 1, 0, 4, 0.00,60.00,Sunday
65,514247.77799999993
113,0.0
309,514247.77799999993
1991,10636996.093248341
2357,0.0
2524,0.0
2,1, 1, 1, 0, 5, 0.00,60.00,Sunday
65,514247.77799999993
113,0.0
309,514247.77799999993
1991,10962991.835337605
2357,0.0
2524,0.0
2,1, 1, 1, 0, 6, 0.00,60.00,Sunday
65,514247.77799999993
113,0.0
309,514247.77799999993
1991,11187121.014321078
2357,0.0
2524,0.0
2,1, 1, 1, 0, 7, 0.00,60.00,Sunday
65,514247.77799999993
113,0.0
309,514247.77799999993
1991,11295203.92292938
2357,0.0
2524,0.0
2,1, 1, 1, 0, 8, 0.00,60.00,Sunday
65,514247.77799999993
113,0.0
309,514247.77799999993
1991,11325908.527110197
2357,0.0
2524,0.0
2,1, 1, 1, 0, 9, 0.00,60.00,Sunday
65,514247.77799999993
113,0.0
309,514247.77799999993
1991,11122193.922775874
2357,0.0
2524,0.0
2,1, 1, 1, 0,10, 0.00,60.00,Sunday
65,514247.77799999993
113,0.0
309,514247.77799999993
1991,10329793.657754634
2357,0.0
2524,0.0
2,1, 1, 1, 0,11, 0.00,60.00,Sunday
65,514247.77799999993
113,0.0
309,514247.77799999993
1991,8776782.666685868
2357,0.0
2524,0.0
2,1, 1, 1, 0,12, 0.00,60.00,Sunday
65,514247.77799999993
113,0.0
309,514247.77799999993
1991,6759925.430824395
2357,0.0
2524,0.0
2,1, 1, 1, 0,13, 0.00,60.00,Sunday
65,514247.77799999993
113,0.0
309,514247.77799999993
1991,4918927.108866128
2357,0.0
2524,0.0
2,1, 1, 1, 0,14, 0.00,60.00,Sunday
65,514247.77799999993
113,0.0
309,514247.77799999993
1991,3703926.630231025
2357,0.0
2524,0.0
2,1, 1, 1, 0,15, 0.00,60.00,Sunday
65,514247.77799999993
113,0.0
309,514247.77799999993
1991,3268142.209777329
2357,0.0
2524,0.0
2,1, 1, 1, 0,16, 0.00,60.00,Sunday
65,514247.77799999993
113,0.0
309,514247.77799999993
1991,3502372.9618289834
2357,0.0
2524,0.0
2,1, 1, 1, 0,17, 0.00,60.00,Sunday
65,514247.77799999993
113,0.0
309,514247.77799999993
1991,4245085.96382723
2357,0.0
2524,0.0
2,1, 1, 1, 0,18, 0.00,60.00,Sunday
65,514247.77799999993
113,0.0
309,514247.77799999993
1991,5181410.028989897
2357,0.0
2524,0.0
2,1, 1, 1, 0,19, 0.00,60.00,Sunday
65,514247.77799999993
113,0.0
309,514247.77799999993
1991,6036366.154353657
2357,0.0
2524,0.0
2,1, 1, 1, 0,20, 0.00,60.00,Sunday
65,514247.77799999993
113,0.0
309,514247.77799999993
1991,6641657.019524133
2357,0.0
2524,0.0
2,1, 1, 1, 0,21, 0.00,60.00,Sunday
65,514247.77799999993
113,0.0
309,514247.77799999993
1991,7099331.978907449
2357,0.0
2524,0.0
2,1, 1, 1, 0,22, 0.00,60.00,Sunday
65,514247.77799999993
113,0.0
309,514247.77799999993
1991,7487797.430119911
2357,0.0
2524,0.0
2,1, 1, 1, 0,23, 0.00,60.00,Sunday
65,514247.77799999993
113,0.0
309,514247.77799999993
1991,7806308.250327145
2357,0.0
2524,0.0
2,1, 1, 1, 0,24, 0.00,60.00,Sunday
65,514247.77799999993
113,0.0
309,514247.77799999993
1991,8073053.202735993
2357,0.0
2524,0.0
3,1, 1, 1, 0,Sunday
66,12341946.67199999,128561.94449999998, 1,15,128561.94449999998, 1,15
114,0.0,0.0, 1,15,0.0, 1,15
310,12341946.67199999,128561.94449999998, 1,15,128561.94449999998, 1,15
1992,188921502.17468092,809609.6519003233,15,45,2832229.453693186, 8,45
2358,0.0,0.0, 1,15,0.0, 1,15
2525,0.0,0.0, 1,15,0.0, 1,15
2,2, 1, 2, 0, 1, 0.00,60.00,Monday
65,514247.77799999993
113,0.0
309,514247.77799999993
1991,8306186.9420400215
2357,0.0
2524,0.0
2,2, 1, 2, 0, 2, 0.00,60.00,Monday
65,514247.77799999993
113,0.0
309,514247.77799999993
1991,8443658.578033878
2357,0.0
2524,0.0
2,2, 1, 2, 0, 3, 0.00,60.00,Monday
65,514247.77799999993
113,0.0
309,514247.77799999993
1991,8524499.954549868
2357,0.0
2524,0.0
2,2, 1, 2, 0, 4, 0.00,60.00,Monday
65,514247.77799999993
113,0.0
309,514247.77799999993
1991,8565971.342663739
2357,0.0
2524,0.0
2,2, 1, 2, 0, 5, 0.00,60.00,Monday
65,514247.77799999993
113,0.0
309,514247.77799999993
1991,8619597.643068748
2357,0.0
2524,0.0
2,2, 1, 2, 0, 6, 0.00,60.00,Monday
65,514247.77799999993
113,0.0
309,514247.77799999993
1991,79160608.19216456
2357,0.0
2524,0.0
2,2, 1, 2, 0, 7, 0.00,60.00,Monday
65,514247.77799999993
113,0.0
309,514247.77799999993
1991,73053690.43205966
2357,0.0
2524,0.0
2,2, 1, 2, 0, 8, 0.00,60.00,Monday
65,18443700.0
113,8910000.0
309,9533700.0
1991,51623249.846109256
2357,0.0
2524,0.0
2,2, 1, 2, 0, 9, 0.00,60.00,Monday
65,18443700.0
113,8910000.0
309,9533700.0
1991,47237643.283880375
2357,0.0
2524,0.0
2,2, 1, 2, 0,10, 0.00,60.00,Monday
65,18443700.0
113,8910000.0
309,9533700.0
1991,49807657.55712019
2357,0.0
2524,0.0
2,2, 1, 2, 0,11, 0.00,60.00,Monday
65,18443700.0
113,8910000.0
309,9533700.0
1991,44177219.38324759
2357,0.0
2524,0.0
2,2, 1, 2, 0,12, 0.00,60.00,Monday
65,18443700.0
113,8910000.0
309,9533700.0
1991,38653654.31229135
2357,0.0
2524,0.0
2,2, 1, 2, 0,13, 0.00,60.00,Monday
65,18443700.0
113,8910000.0
309,9533700.0
1991,29800741.43495413
2357,0.0
2524,0.0
2,2, 1, 2, 0,14, 0.00,60.00,Monday
65,18443700.0
113,8910000.0
309,9533700.0
1991,26615236.926302053
2357,0.0
2524,0.0
2,2, 1, 2, 0,15, 0.00,60.00,Monday
65,18443700.0
113,8910000.0
309,9533700.0
1991,29072820.403215952
2357,0.0
2524,0.0
2,2, 1, 2, 0,16, 0.00,60.00,Monday
65,18443700.0
113,8910000.0
309,9533700.0
1991,28917974.540777467
2357,0.0
2524,0.0
2,2, 1, 2, 0,17, 0.00,60.00,Monday
65,18443700.0
113,8910000.0
309,9533700.0
1991,30089674.85226229
2357,0.0
2524,0.0
2,2, 1, 2, 0,18, 0.00,60.00,Monday
65,18443700.0
113,8910000.0
309,9533700.0
1991,24034305.974979777
2357,0.0
2524,0.0
2,2, 1, 2, 0,19, 0.00,60.00,Monday
65,18443700.0
113,8910000.0
309,9533700.0
1991,21431980.187858086
2357,0.0
2524,0.0
2,2, 1, 2, 0,20, 0.00,60.00,Monday
65,9533700.0
113,0.0
309,9533700.0
1991,0.0
2357,0.0
2524,0.0
2,2, 1, 2, 0,21, 0.00,60.00,Monday
65,514247.77799999993
113,0.0
309,514247.77799999993
1991,0.0
2357,0.0
2524,0.0
2,2, 1, 2, 0,22, 0.00,60.00,Monday
65,514247.77799999993
113,0.0
309,514247.77799999993
1991,0.0
2357,0.0
2524,0.0
2,2, 1, 2, 0,23, 0.00,60.00,Monday
65,514247.77799999993
113,0.0
309,514247.77799999993
1991,0.0
2357,0.0
2524,0.0
2,2, 1, 2, 0,24, 0.00,60.00,Monday
65,514247.77799999993
113,0.0
309,514247.77799999993
1991,0.0
2357,0.0
2524,0.0
3,2, 1, 2, 0,Monday
66,236514825.558,128561.94449999998, 1,15,4610925.0, 8,15
114,106920000.0,0.0, 1,15,2227500.0, 8,15
310,129594825.558,128561.94449999998, 1,15,2383425.0, 8,15
1992,616136371.7875792,0.0,20,15,19790152.048041143, 6,15
2358,0.0,0.0, 1,15,0.0, 1,15
2525,0.0,0.0, 1,15,0.0, 1,15
2,3, 1, 3, 0, 1, 0.00,60.00,Tuesday
65,514247.77799999993
113,0.0
309,514247.77799999993
1991,0.0
2357,0.0
2524,0.0
2,3, 1, 3, 0, 2, 0.00,60.00,Tuesday
65,514247.77799999993
113,0.0
309,514247.77799999993
1991,0.0
2357,0.0
2524,0.0
2,3, 1, 3, 0, 3, 0.00,60.00,Tuesday
65,514247.77799999993
113,0.0
309,514247.77799999993
1991,0.0
2357,0.0
2524,0.0
2,3, 1, 3, 0, 4, 0.00,60.00,Tuesday
65,514247.77799999993
113,0.0
309,514247.77799999993
1991,3124.0022227471864
2357,0.0
2524,0.0
2,3, 1, 3, 0, 5, 0.00,60.00,Tuesday
65,514247.77799999993
113,0.0
309,514247.77799999993
1991,1193747.3759147243
2357,0.0
2524,0.0
2,3, 1, 3, 0, 6, 0.00,60.00,Tuesday
65,514247.77799999993
113,0.0
309,514247.77799999993
1991,77668160.63409841
2357,0.0
2524,0.0
2,3, 1, 3, 0, 7, 0.00,60.00,Tuesday
65,514247.77799999993
113,0.0
309,514247.77799999993
1991,61028483.73201692
2357,0.0
2524,0.0
2,3, 1, 3, 0, 8, 0.00,60.00,Tuesday
65,18443700.0
113,8910000.0
309,9533700.0
1991,43369910.804570556
2357,0.0
2524,0.0
2,3, 1, 3, 0, 9, 0.00,60.00,Tuesday
65,18443700.0
113,8910000.0
309,9533700.0
1991,41407214.71729476
2357,0.0
2524,0.0
2,3, 1, 3, 0,10, 0.00,60.00,Tuesday
65,18443700.0
113,8910000.0
309,9533700.0
1991,46506278.02928096
2357,0.0
2524,0.0
2,3, 1, 3, 0,11, 0.00,60.00,Tuesday
65,18443700.0
113,8910000.0
309,9533700.0
1991,42033954.83973882
2357,0.0
2524,0.0
2,3, 1, 3, 0,12, 0.00,60.00,Tuesday
65,18443700.0
113,8910000.0
309,9533700.0
1991,37761507.20005588
2357,0.0
2524,0.0
2,3, 1, 3, 0,13, 0.00,60.00,Tuesday
65,18443700.0
113,8910000.0
309,9533700.0
1991,29749035.48046433
2357,0.0
2524,0.0
2,3, 1, 3, 0,14, 0.00,60.00,Tuesday
65,18443700.0
113,8910000.0
309,9533700.0
1991,27040487.006558973
2357,0.0
2524,0.0
2,3, 1, 3, 0,15, 0.00,60.00,Tuesday
65,18443700.0
113,8910000.0
309,9533700.0
1991,29104813.09595871
2357,0.0
2524,0.0
2,3, 1, 3, 0,16, 0.00,60.00,Tuesday
65,18443700.0
113,8910000.0
309,9533700.0
1991,27849276.180038154
2357,0.0
2524,0.0
2,3, 1, 3, 0,17, 0.00,60.00,Tuesday
65,18443700.0
113,8910000.0
309,9533700.0
1991,28887773.232827168
2357,0.0
2524,0.0
2,3, 1, 3, 0,18, 0.00,60.00,Tuesday
65,18443700.0
113,8910000.0
309,9533700.0
1991,21690792.87633738
2357,0.0
2524,0.0
2,3, 1, 3, 0,19, 0.00,60.00,Tuesday
65,18443700.0
113,8910000.0
309,9533700.0
1991,18163128.94872077
2357,0.0
2524,0.0
2,3, 1, 3, 0,20, 0.00,60.00,Tuesday
65,9533700.0
113,0.0
309,9533700.0
1991,0.0
2357,0.0
2524,0.0
2,3, 1, 3, 0,21, 0.00,60.00,Tuesday
65,514247.77799999993
113,0.0
309,514247.77799999993
1991,0.0
2357,0.0
2524,0.0
2,3, 1, 3, 0,22, 0.00,60.00,Tuesday
65,514247.77799999993
113,0.0
309,514247.77799999993
1991,0.0
2357,0.0
2524,0.0
2,3, 1, 3, 0,23, 0.00,60.00,Tuesday
65,514247.77799999993
113,0.0
309,514247.77799999993
1991,0.0
2357,0.0
2524,0.0
2,3, 1, 3, 0,24, 0.00,60.00,Tuesday
65,514247.77799999993
113,0.0
309,514247.77799999993
1991,0.0
2357,0.0
2524,0.0
3,3, 1, 3, 0,Tuesday
66,236514825.558,128561.94449999998, 1,15,4610925.0, 8,15
114,106920000.0,0.0, 1,15,2227500.0, 8,15
310,129594825.558,128561.94449999998, 1,15,2383425.0, 8,15
1992,533457688.1560992,0.0, 1,15,19790152.04804114, 6,15
2358,0.0,0.0, 1,15,0.0, 1,15
2525,0.0,0.0, 1,15,0.0, 1,15
2,4, 1, 4, 0, 1, 0.00,60.00,Wednesday
65,514247.77799999993
113,0.0
309,514247.77799999993
1991,0.0
2357,0.0
2524,0.0
2,4, 1, 4, 0, 2, 0.00,60.00,Wednesday
65,514247.77799999993
113,0.0
309,514247.77799999993
1991,0.0
2357,0.0
2524,0.0
2,4, 1, 4, 0, 3, 0.00,60.00,Wednesday
65,514247.77799999993
113,0.0
309,514247.77799999993
1991,0.0
2357,0.0
2524,0.0
2,4, 1, 4, 0, 4, 0.00,60.00,Wednesday
65,514247.77799999993
113,0.0
309,514247.77799999993
1991,0.0
2357,0.0
2524,0.0
2,4, 1, 4, 0, 5, 0.00,60.00,Wednesday
65,514247.77799999993
113,0.0
309,514247.77799999993
1991,0.0
2357,0.0
2524,0.0
2,4, 1, 4, 0, 6, 0.00,60.00,Wednesday
65,514247.77799999993
113,0.0
309,514247.77799999993
1991,69268781.62606043
2357,0.0
2524,0.0
2,4, 1, 4, 0, 7, 0.00,60.00,Wednesday
65,514247.77799999993
113,0.0
309,514247.77799999993
1991,52308526.117597945
2357,0.0
2524,0.0
2,4, 1, 4, 0, 8, 0.00,60.00,Wednesday
65,18443700.0
113,8910000.0
309,9533700.0
1991,37757348.867650166
2357,0.0
2524,0.0
2,4, 1, 4, 0, 9, 0.00,60.00,Wednesday
65,18443700.0
113,8910000.0
309,9533700.0
1991,37183799.50392195
2357,0.0
2524,0.0
2,4, 1, 4, 0,10, 0.00,60.00,Wednesday
65,18443700.0
113,8910000.0
309,9533700.0
1991,41162948.93226965
2357,0.0
2524,0.0
2,4, 1, 4, 0,11, 0.00,60.00,Wednesday
65,18443700.0
113,8910000.0
309,9533700.0
1991,35781471.19887054
2357,0.0
2524,0.0
2,4, 1, 4, 0,12, 0.00,60.00,Wednesday
65,18443700.0
113,8910000.0
309,9533700.0
1991,31580253.803634606
2357,0.0
2524,0.0
2,4, 1, 4, 0,13, 0.00,60.00,Wednesday
65,18443700.0
113,8910000.0
309,9533700.0
1991,24671111.293265782
2357,0.0
2524,0.0
2,4, 1, 4, 0,14, 0.00,60.00,Wednesday
65,18443700.0
113,8910000.0
309,9533700.0
1991,23004810.198151886
2357,0.0
2524,0.0
2,4, 1, 4, 0,15, 0.00,60.00,Wednesday
65,18443700.0
113,8910000.0
309,9533700.0
1991,26133000.642622538
2357,0.0
2524,0.0
2,4, 1, 4, 0,16, 0.00,60.00,Wednesday
65,18443700.0
113,8910000.0
309,9533700.0
1991,25671037.51811471
2357,0.0
2524,0.0
2,4, 1, 4, 0,17, 0.00,60.00,Wednesday
65,18443700.0
113,8910000.0
309,9533700.0
1991,27346530.724602565
2357,0.0
2524,0.0
2,4, 1, 4, 0,18, 0.00,60.00,Wednesday
65,18443700.0
113,8910000.0
309,9533700.0
1991,20554374.796649978
2357,0.0
2524,0.0
2,4, 1, 4, 0,19, 0.00,60.00,Wednesday
65,18443700.0
113,8910000.0
309,9533700.0
1991,17924716.50808997
2357,0.0
2524,0.0
2,4, 1, 4, 0,20, 0.00,60.00,Wednesday
65,9533700.0
113,0.0
309,9533700.0
1991,0.0
2357,0.0
2524,0.0
2,4, 1, 4, 0,21, 0.00,60.00,Wednesday
65,514247.77799999993
113,0.0
309,514247.77799999993
1991,0.0
2357,0.0
2524,0.0
2,4, 1, 4, 0,22, 0.00,60.00,Wednesday
65,514247.77799999993
113,0.0
309,514247.77799999993
1991,0.0
2357,0.0
2524,0.0
2,4, 1, 4, 0,23, 0.00,60.00,Wednesday
65,514247.77799999993
113,0.0
309,514247.77799999993
1991,0.0
2357,0.0
2524,0.0
2,4, 1, 4, 0,24, 0.00,60.00,Wednesday
65,514247.77799999993
113,0.0
309,514247.77799999993
1991,0.0
2357,0.0
2524,0.0
3,4, 1, 4, 0,Wednesday
66,236514825.558,128561.94449999998, 1,15,4610925.0, 8,15
114,106920000.0,0.0, 1,15,2227500.0, 8,15
310,129594825.558,128561.94449999998, 1,15,2383425.0, 8,15
1992,470348711.7315028,0.0, 1,15,19024908.955834456, 6,30
2358,0.0,0.0, 1,15,0.0, 1,15
2525,0.0,0.0, 1,15,0.0, 1,15
2,5, 1, 5, 0, 1, 0.00,60.00,Thursday
65,514247.77799999993
113,0.0
309,514247.77799999993
1991,0.0
2357,0.0
2524,0.0
2,5, 1, 5, 0, 2, 0.00,60.00,Thursday
65,514247.77799999993
113,0.0
309,514247.77799999993
1991,0.0
2357,0.0
2524,0.0
2,5, 1, 5, 0, 3, 0.00,60.00,Thursday
65,514247.77799999993
113,0.0
309,514247.77799999993
1991,0.0
2357,0.0
2524,0.0
2,5, 1, 5, 0, 4, 0.00,60.00,Thursday
65,514247.77799999993
113,0.0
309,514247.77799999993
1991,0.0
2357,0.0
2524,0.0
2,5, 1, 5, 0, 5, 0.00,60.00,Thursday
65,514247.77799999993
113,0.0
309,514247.77799999993
1991,0.0
2357,0.0
2524,0.0
2,5, 1, 5, 0, 6, 0.00,60.00,Thursday
65,514247.77799999993
113,0.0
309,514247.77799999993
1991,77921492.26587929
2357,0.0
2524,0.0
2,5, 1, 5, 0, 7, 0.00,60.00,Thursday
65,514247.77799999993
113,0.0
309,514247.77799999993
1991,63182765.18908458
2357,0.0
2524,0.0
2,5, 1, 5, 0, 8, 0.00,60.00,Thursday
65,18443700.0
113,8910000.0
309,9533700.0
1991,48198359.93996088
2357,0.0
2524,0.0
2,5, 1, 5, 0, 9, 0.00,60.00,Thursday
65,18443700.0
113,8910000.0
309,9533700.0
1991,46976109.03813464
2357,0.0
2524,0.0
2,5, 1, 5, 0,10, 0.00,60.00,Thursday
65,18443700.0
113,8910000.0
309,9533700.0
1991,48919808.980567336
2357,0.0
2524,0.0
2,5, 1, 5, 0,11, 0.00,60.00,Thursday
65,18443700.0
113,8910000.0
309,9533700.0
1991,38662937.443559736
2357,0.0
2524,0.0
2,5, 1, 5, 0,12, 0.00,60.00,Thursday
65,18443700.0
113,8910000.0
309,9533700.0
1991,29980468.66634797
2357,0.0
2524,0.0
2,5, 1, 5, 0,13, 0.00,60.00,Thursday
65,18443700.0
113,8910000.0
309,9533700.0
1991,19073650.62362264
2357,0.0
2524,0.0
2,5, 1, 5, 0,14, 0.00,60.00,Thursday
65,18443700.0
113,8910000.0
309,9533700.0
1991,15749355.246758245
2357,0.0
2524,0.0
2,5, 1, 5, 0,15, 0.00,60.00,Thursday
65,18443700.0
113,8910000.0
309,9533700.0
1991,18913245.581311766
2357,0.0
2524,0.0
2,5, 1, 5, 0,16, 0.00,60.00,Thursday
65,18443700.0
113,8910000.0
309,9533700.0
1991,19586392.374351356
2357,0.0
2524,0.0
2,5, 1, 5, 0,17, 0.00,60.00,Thursday
65,18443700.0
113,8910000.0
309,9533700.0
1991,22565809.856919616
2357,0.0
2524,0.0
2,5, 1, 5, 0,18, 0.00,60.00,Thursday
65,18443700.0
113,8910000.0
309,9533700.0
1991,17347719.91175774
2357,0.0
2524,0.0
2,5, 1, 5, 0,19, 0.00,60.00,Thursday
65,18443700.0
113,8910000.0
309,9533700.0
1991,15693537.76424151
2357,0.0
2524,0.0
2,5, 1, 5, 0,20, 0.00,60.00,Thursday
65,9533700.0
113,0.0
309,9533700.0
1991,0.0
2357,0.0
2524,0.0
2,5, 1, 5, 0,21, 0.00,60.00,Thursday
65,514247.77799999993
113,0.0
309,514247.77799999993
1991,0.0
2357,0.0
2524,0.0
2,5, 1, 5, 0,22, 0.00,60.00,Thursday
65,514247.77799999993
113,0.0
309,514247.77799999993
1991,0.0
2357,0.0
2524,0.0
2,5, 1, 5, 0,23, 0.00,60.00,Thursday
65,514247.77799999993
113,0.0
309,514247.77799999993
1991,0.0
2357,0.0
2524,0.0
2,5, 1, 5, 0,24, 0.00,60.00,Thursday
65,514247.77799999993
113,0.0
309,514247.77799999993
1991,0.0
2357,0.0
2524,0.0
3,5, 1, 5, 0,Thursday
66,236514825.558,128561.94449999998, 1,15,4610925.0, 8,15
114,106920000.0,0.0, 1,15,2227500.0, 8,15
310,129594825.558,128561.94449999998, 1,15,2383425.0, 8,15
1992,482771652.8824975,0.0, 1,15,19790152.04804114, 6,15
2358,0.0,0.0, 1,15,0.0, 1,15
2525,0.0,0.0, 1,15,0.0, 1,15
2,6, 1, 6, 0, 1, 0.00,60.00,Friday
65,514247.77799999993
113,0.0
309,514247.77799999993
1991,0.0
2357,0.0
2524,0.0
2,6, 1, 6, 0, 2, 0.00,60.00,Friday
65,514247.77799999993
113,0.0
309,514247.77799999993
1991,0.0
2357,0.0
2524,0.0
2,6, 1, 6, 0, 3, 0.00,60.00,Friday
65,514247.77799999993
113,0.0
309,514247.77799999993
1991,0.0
2357,0.0
2524,0.0
2,6, 1, 6, 0, 4, 0.00,60.00,Friday
65,514247.77799999993
113,0.0
309,514247.77799999993
1991,0.0
2357,0.0
2524,0.0
2,6, 1, 6, 0, 5, 0.00,60.00,Friday
65,514247.77799999993
113,0.0
309,514247.77799999993
1991,0.0
2357,0.0
2524,0.0
2,6, 1, 6, 0, 6, 0.00,60.00,Friday
65,514247.77799999993
113,0.0
309,514247.77799999993
1991,74107062.30432066
2357,0.0
2524,0.0
2,6, 1, 6, 0, 7, 0.00,60.00,Friday
65,514247.77799999993
113,0.0
309,514247.77799999993
1991,55887056.71822226
2357,0.0
2524,0.0
2,6, 1, 6, 0, 8, 0.00,60.00,Friday
65,18443700.0
113,8910000.0
309,9533700.0
1991,40557287.925755605
2357,0.0
2524,0.0
2,6, 1, 6, 0, 9, 0.00,60.00,Friday
65,18443700.0
113,8910000.0
309,9533700.0
1991,40188328.59156511
2357,0.0
2524,0.0
2,6, 1, 6, 0,10, 0.00,60.00,Friday
65,18443700.0
113,8910000.0
309,9533700.0
1991,46850626.42683767
2357,0.0
2524,0.0
2,6, 1, 6, 0,11, 0.00,60.00,Friday
65,18443700.0
113,8910000.0
309,9533700.0
1991,42408852.07498702
2357,0.0
2524,0.0
2,6, 1, 6, 0,12, 0.00,60.00,Friday
65,18443700.0
113,8910000.0
309,9533700.0
1991,37317643.579903215
2357,0.0
2524,0.0
2,6, 1, 6, 0,13, 0.00,60.00,Friday
65,18443700.0
113,8910000.0
309,9533700.0
1991,27950455.505014148
2357,0.0
2524,0.0
2,6, 1, 6, 0,14, 0.00,60.00,Friday
65,18443700.0
113,8910000.0
309,9533700.0
1991,24336851.26793948
2357,0.0
2524,0.0
2,6, 1, 6, 0,15, 0.00,60.00,Friday
65,18443700.0
113,8910000.0
309,9533700.0
1991,26269052.660909995
2357,0.0
2524,0.0
2,6, 1, 6, 0,16, 0.00,60.00,Friday
65,18443700.0
113,8910000.0
309,9533700.0
1991,25364616.230175745
2357,0.0
2524,0.0
2,6, 1, 6, 0,17, 0.00,60.00,Friday
65,18443700.0
113,8910000.0
309,9533700.0
1991,27309813.388736114
2357,0.0
2524,0.0
2,6, 1, 6, 0,18, 0.00,60.00,Friday
65,18443700.0
113,8910000.0
309,9533700.0
1991,21546776.783746347
2357,0.0
2524,0.0
2,6, 1, 6, 0,19, 0.00,60.00,Friday
65,18443700.0
113,8910000.0
309,9533700.0
1991,19500408.715118572
2357,0.0
2524,0.0
2,6, 1, 6, 0,20, 0.00,60.00,Friday
65,9533700.0
113,0.0
309,9533700.0
1991,0.0
2357,0.0
2524,0.0
2,6, 1, 6, 0,21, 0.00,60.00,Friday
65,514247.77799999993
113,0.0
309,514247.77799999993
1991,0.0
2357,0.0
2524,0.0
2,6, 1, 6, 0,22, 0.00,60.00,Friday
65,514247.77799999993
113,0.0
309,514247.77799999993
1991,0.0
2357,0.0
2524,0.0
2,6, 1, 6, 0,23, 0.00,60.00,Friday
65,514247.77799999993
113,0.0
309,514247.77799999993
1991,0.0
2357,0.0
2524,0.0
2,6, 1, 6, 0,24, 0.00,60.00,Friday
65,514247.77799999993
113,0.0
309,514247.77799999993
1991,0.0
2357,0.0
2524,0.0
3,6, 1, 6, 0,Friday
66,236514825.558,128561.94449999998, 1,15,4610925.0, 8,15
114,106920000.0,0.0, 1,15,2227500.0, 8,15
310,129594825.558,128561.94449999998, 1,15,2383425.0, 8,15
1992,509594832.173232,0.0, 1,15,19768992.90823931, 6,30
2358,0.0,0.0, 1,15,0.0, 1,15
2525,0.0,0.0, 1,15,0.0, 1,15
2,7, 1, 7, 0, 1, 0.00,60.00,Saturday
65,514247.77799999993
113,0.0
309,514247.77799999993
1991,0.0
2357,0.0
2524,0.0
2,7, 1, 7, 0, 2, 0.00,60.00,Saturday
65,514247.77799999993
113,0.0
309,514247.77799999993
1991,0.0
2357,0.0
2524,0.0
2,7, 1, 7, 0, 3, 0.00,60.00,Saturday
65,514247.77799999993
113,0.0
309,514247.77799999993
1991,0.0
2357,0.0
2524,0.0
2,7, 1, 7, 0, 4, 0.00,60.00,Saturday
65,514247.77799999993
113,0.0
309,514247.77799999993
1991,1595071.373086313
2357,0.0
2524,0.0
2,7, 1, 7, 0, 5, 0.00,60.00,Saturday
65,514247.77799999993
113,0.0
309,514247.77799999993
1991,4080149.517205132
2357,0.0
2524,0.0
2,7, 1, 7, 0, 6, 0.00,60.00,Saturday
65,514247.77799999993
113,0.0
309,514247.77799999993
1991,5860489.276269261
2357,0.0
2524,0.0
2,7, 1, 7, 0, 7, 0.00,60.00,Saturday
65,514247.77799999993
113,0.0
309,514247.77799999993
1991,7182585.991320393
2357,0.0
2524,0.0
2,7, 1, 7, 0, 8, 0.00,60.00,Saturday
65,514247.77799999993
113,0.0
309,514247.77799999993
1991,8180452.476814831
2357,0.0
2524,0.0
2,7, 1, 7, 0, 9, 0.00,60.00,Saturday
65,514247.77799999993
113,0.0
309,514247.77799999993
1991,8255108.923302119
2357,0.0
2524,0.0
2,7, 1, 7, 0,10, 0.00,60.00,Saturday
65,514247.77799999993
113,0.0
309,514247.77799999993
1991,5489180.74425727
2357,0.0
2524,0.0
2,7, 1, 7, 0,11, 0.00,60.00,Saturday
65,514247.77799999993
113,0.0
309,514247.77799999993
1991,1940208.3166302522
2357,0.0
2524,0.0
2,7, 1, 7, 0,12, 0.00,60.00,Saturday
65,514247.77799999993
113,0.0
309,514247.77799999993
1991,95219.59341739556
2357,0.0
2524,0.0
2,7, 1, 7, 0,13, 0.00,60.00,Saturday
65,514247.77799999993
113,0.0
309,514247.77799999993
1991,0.0
2357,0.0
2524,0.0
2,7, 1, 7, 0,14, 0.00,60.00,Saturday
65,514247.77799999993
113,0.0
309,514247.77799999993
1991,0.0
2357,0.0
2524,0.0
2,7, 1, 7, 0,15, 0.00,60.00,Saturday
65,514247.77799999993
113,0.0
309,514247.77799999993
1991,0.0
2357,0.0
2524,0.0
2,7, 1, 7, 0,16, 0.00,60.00,Saturday
65,514247.77799999993
113,0.0
309,514247.77799999993
1991,0.0
2357,0.0
2524,0.0
2,7, 1, 7, 0,17, 0.00,60.00,Saturday
65,514247.77799999993
113,0.0
309,514247.77799999993
1991,0.0
2357,0.0
2524,0.0
2,7, 1, 7, 0,18, 0.00,60.00,Saturday
65,514247.77799999993
113,0.0
309,514247.77799999993
1991,0.0
2357,0.0
2524,0.0
2,7, 1, 7, 0,19, 0.00,60.00,Saturday
65,514247.77799999993
113,0.0
309,514247.77799999993
1991,0.0
2357,0.0
2524,0.0
2,7, 1, 7, 0,20, 0.00,60.00,Saturday
65,514247.77799999993
113,0.0
309,514247.77799999993
1991,4252.317423681235
2357,0.0
2524,0.0
2,7, 1, 7, 0,21, 0.00,60.00,Saturday
65,514247.77799999993
113,0.0
309,514247.77799999993
1991,681615.3051472763
2357,0.0
2524,0.0
2,7, 1, 7, 0,22, 0.00,60.00,Saturday
65,514247.77799999993
113,0.0
309,514247.77799999993
1991,2076398.176438172
2357,0.0
2524,0.0
2,7, 1, 7, 0,23, 0.00,60.00,Saturday
65,514247.77799999993
113,0.0
309,514247.77799999993
1991,3407162.697257244
2357,0.0
2524,0.0
2,7, 1, 7, 0,24, 0.00,60.00,Saturday
65,514247.77799999993
113,0.0
309,514247.77799999993
1991,4587638.618679942
2357,0.0
2524,0.0
3,7, 1, 7, 0,Saturday
66,12341946.67199999,128561.94449999998, 1,15,128561.94449999998, 1,15
114,0.0,0.0, 1,15,0.0, 1,15
310,12341946.67199999,128561.94449999998, 1,15,128561.94449999998, 1,15
1992,53435533.32724929,0.0, 1,15,2162668.7046169955, 9,30
2358,0.0,0.0, 1,15,0.0, 1,15
2525,0.0,0.0, 1,15,0.0, 1,15
2,8, 1, 8, 0, 1, 0.00,60.00,Sunday
65,514247.77799999993
113,0.0
309,514247.77799999993
1991,5600300.304653162
2357,0.0
2524,0.0
2,8, 1, 8, 0, 2, 0.00,60.00,Sunday
65,514247.77799999993
113,0.0
309,514247.77799999993
1991,6723502.421389189
2357,0.0
2524,0.0
2,8, 1, 8, 0, 3, 0.00,60.00,Sunday
65,514247.77799999993
113,0.0
309,514247.77799999993
1991,7938000.084297955
2357,0.0
2524,0.0
2,8, 1, 8, 0, 4, 0.00,60.00,Sunday
65,514247.77799999993
113,0.0
309,514247.77799999993
1991,9171190.113365436
2357,0.0
2524,0.0
2,8, 1, 8, 0, 5, 0.00,60.00,Sunday
65,514247.77799999993
113,0.0
309,514247.77799999993
1991,10267218.228490386
2357,0.0
2524,0.0
2,8, 1, 8, 0, 6, 0.00,60.00,Sunday
65,514247.77799999993
113,0.0
309,514247.77799999993
1991,11177357.709330222
2357,0.0
2524,0.0
2,8, 1, 8, 0, 7, 0.00,60.00,Sunday
65,514247.77799999993
113,0.0
309,514247.77799999993
1991,11941069.740514219
2357,0.0
2524,0.0
2,8, 1, 8, 0, 8, 0.00,60.00,Sunday
65,514247.77799999993
113,0.0
309,514247.77799999993
1991,12418704.672970768
2357,0.0
2524,0.0
2,8, 1, 8, 0, 9, 0.00,60.00,Sunday
65,514247.77799999993
113,0.0
309,514247.77799999993
1991,12454416.911661152
2357,0.0
2524,0.0
2,8, 1, 8, 0,10, 0.00,60.00,Sunday
65,514247.77799999993
113,0.0
309,514247.77799999993
1991,11542560.32982588
2357,0.0
2524,0.0
2,8, 1, 8, 0,11, 0.00,60.00,Sunday
65,514247.77799999993
113,0.0
309,514247.77799999993
1991,9371900.963940432
2357,0.0
2524,0.0
2,8, 1, 8, 0,12, 0.00,60.00,Sunday
65,514247.77799999993
113,0.0
309,514247.77799999993
1991,6699129.1974522555
2357,0.0
2524,0.0
2,8, 1, 8, 0,13, 0.00,60.00,Sunday
65,514247.77799999993
113,0.0
309,514247.77799999993
1991,4429455.294690739
2357,0.0
2524,0.0
2,8, 1, 8, 0,14, 0.00,60.00,Sunday
65,514247.77799999993
113,0.0
309,514247.77799999993
1991,3128460.9039706616
2357,0.0
2524,0.0
2,8, 1, 8, 0,15, 0.00,60.00,Sunday
65,514247.77799999993
113,0.0
309,514247.77799999993
1991,2879054.568603758
2357,0.0
2524,0.0
2,8, 1, 8, 0,16, 0.00,60.00,Sunday
65,514247.77799999993
113,0.0
309,514247.77799999993
1991,3446369.244673659
2357,0.0
2524,0.0
2,8, 1, 8, 0,17, 0.00,60.00,Sunday
65,514247.77799999993
113,0.0
309,514247.77799999993
1991,4676927.377573644
2357,0.0
2524,0.0
2,8, 1, 8, 0,18, 0.00,60.00,Sunday
65,514247.77799999993
113,0.0
309,514247.77799999993
1991,6213279.3764211945
2357,0.0
2524,0.0
2,8, 1, 8, 0,19, 0.00,60.00,Sunday
65,514247.77799999993
113,0.0
309,514247.77799999993
1991,7619501.124910247
2357,0.0
2524,0.0
2,8, 1, 8, 0,20, 0.00,60.00,Sunday
65,514247.77799999993
113,0.0
309,514247.77799999993
1991,8705926.764871513
2357,0.0
2524,0.0
2,8, 1, 8, 0,21, 0.00,60.00,Sunday
65,514247.77799999993
113,0.0
309,514247.77799999993
1991,9476368.289032359
2357,0.0
2524,0.0
2,8, 1, 8, 0,22, 0.00,60.00,Sunday
65,514247.77799999993
113,0.0
309,514247.77799999993
1991,10047149.057613978
2357,0.0
2524,0.0
2,8, 1, 8, 0,23, 0.00,60.00,Sunday
65,514247.77799999993
113,0.0
309,514247.77799999993
1991,10462704.651260586
2357,0.0
2524,0.0
2,8, 1, 8, 0,24, 0.00,60.00,Sunday
65,514247.77799999993
113,0.0
309,514247.77799999993
1991,10763704.610597495
2357,0.0
2524,0.0
3,8, 1, 8, 0,Sunday
66,12341946.67199999,128561.94449999998, 1,15,128561.94449999998, 1,15
114,0.0,0.0, 1,15,0.0, 1,15
310,12341946.67199999,128561.94449999998, 1,15,128561.94449999998, 1,15
1992,197154251.94211096,706846.7582914373,15,30,3134790.3615436675, 9,30
2358,0.0,0.0, 1,15,0.0, 1,15
2525,0.0,0.0, 1,15,0.0, 1,15
2,9, 1, 9, 0, 1, 0.00,60.00,Monday
65,514247.77799999993
113,0.0
309,514247.77799999993
1991,10996934.234496579
2357,0.0
2524,0.0
2,9, 1, 9, 0, 2, 0.00,60.00,Monday
65,514247.77799999993
113,0.0
309,514247.77799999993
1991,11157567.901699757
2357,0.0
2524,0.0
2,9, 1, 9, 0, 3, 0.00,60.00,Monday
65,514247.77799999993
113,0.0
309,514247.77799999993
1991,11302347.558036694
2357,0.0
2524,0.0
2,9, 1, 9, 0, 4, 0.00,60.00,Monday
65,514247.77799999993
113,0.0
309,514247.77799999993
1991,11435630.356263336
2357,0.0
2524,0.0
2,9, 1, 9, 0, 5, 0.00,60.00,Monday
65,514247.77799999993
113,0.0
309,514247.77799999993
1991,11538385.337869413
2357,0.0
2524,0.0
2,9, 1, 9, 0, 6, 0.00,60.00,Monday
65,514247.77799999993
113,0.0
309,514247.77799999993
1991,79160608.19216454
2357,0.0
2524,0.0
2,9, 1, 9, 0, 7, 0.00,60.00,Monday
65,514247.77799999993
113,0.0
309,514247.77799999993
1991,76702760.76433817
2357,0.0
2524,0.0
2,9, 1, 9, 0, 8, 0.00,60.00,Monday
65,18443700.0
113,8910000.0
309,9533700.0
1991,56177004.88984891
2357,0.0
2524,0.0
2,9, 1, 9, 0, 9, 0.00,60.00,Monday
65,18443700.0
113,8910000.0
309,9533700.0
1991,51376972.55107771
2357,0.0
2524,0.0
2,9, 1, 9, 0,10, 0.00,60.00,Monday
65,18443700.0
113,8910000.0
309,9533700.0
1991,53215547.45663393
2357,0.0
2524,0.0
2,9, 1, 9, 0,11, 0.00,60.00,Monday
65,18443700.0
113,8910000.0
309,9533700.0
1991,43023388.373420835
2357,0.0
2524,0.0