Program Version,EnergyPlus, Version 9.6.0-f420c06a69, YMD=2024.11.05 15:21
1,5,Environment Title[],Latitude[deg],Longitude[deg],Time Zone[],Elevation[m]
2,8,Day of Simulation[],Month[],Day of Month[],DST Indicator[1=yes 0=no],Hour[],StartMinute[],EndMinute[],DayType
3,5,Cumulative Day of Simulation[],Month[],Day of Month[],DST Indicator[1=yes 0=no],DayType  ! When Daily Meters Requested
4,2,Cumulative Days of Simulation[],Month[]  ! When Monthly Meters Requested
5,1,Cumulative Days of Simulation[] ! When Run Period Meters Requested
6,1,Calendar Year of Simulation[] ! When Annual Meters Requested
65,1,Electricity:Facility [J] !Hourly
309,1,InteriorEquipment:Electricity [J] !Hourly
113,1,InteriorLights:Electricity [J] !Hourly
66,7,Electricity:Facility [J] !Daily [Value,Min,Hour,Minute,Max,Hour,Minute]
310,7,InteriorEquipment:Electricity [J] !Daily [Value,Min,Hour,Minute,Max,Hour,Minute]
114,7,InteriorLights:Electricity [J] !Daily [Value,Min,Hour,Minute,Max,Hour,Minute]
67,9,Electricity:Facility [J] !Monthly [Value,Min,Day,Hour,Minute,Max,Day,Hour,Minute]
311,9,InteriorEquipment:Electricity [J] !Monthly [Value,Min,Day,Hour,Minute,Max,Day,Hour,Minute]
115,9,InteriorLights:Electricity [J] !Monthly [Value,Min,Day,Hour,Minute,Max,Day,Hour,Minute]
69,11,Electricity:Facility [J] !RunPeriod [Value,Min,Month,Day,Hour,Minute,Max,Month,Day,Hour,Minute]
313,11,InteriorEquipment:Electricity [J] !RunPeriod [Value,Min,Month,Day,Hour,Minute,Max,Month,Day,Hour,Minute]
117,11,InteriorLights:Electricity [J] !RunPeriod [Value,Min,Month,Day,Hour,Minute,Max,Month,Day,Hour,Minute]
2181,1,DistrictCooling:Facility [J] !Hourly
1815,1,DistrictHeating:Facility [J] !Hourly
2348,1,Carbon Equivalent:Facility [kg] !Hourly
2182,7,DistrictCooling:Facility [J] !Daily [Value,Min,Hour,Minute,Max,Hour,Minute]
1816,7,DistrictHeating:Facility [J] !Daily [Value,Min,Hour,Minute,Max,Hour,Minute]
2349,7,Carbon Equivalent:Facility [kg] !Daily [Value,Min,Hour,Minute,Max,Hour,Minute]
2183,9,DistrictCooling:Facility [J] !Monthly [Value,Min,Day,Hour,Minute,Max,Day,Hour,Minute]
1817,9,DistrictHeating:Facility [J] !Monthly [Value,Min,Day,Hour,Minute,Max,Day,Hour,Minute]
2350,9,Carbon Equivalent:Facility [kg] !Monthly [Value,Min,Day,Hour,Minute,Max,Day,Hour,Minute]
2185,11,DistrictCooling:Facility [J] !RunPeriod [Value,Min,Month,Day,Hour,Minute,Max,Month,Day,Hour,Minute]
1819,11,DistrictHeating:Facility [J] !RunPeriod [Value,Min,Month,Day,Hour,Minute,Max,Month,Day,Hour,Minute]
2352,11,Carbon Equivalent:Facility [kg] !RunPeriod [Value,Min,Month,Day,Hour,Minute,Max,Month,Day,Hour,Minute]
End of Data Dictionary
1,UNTITLED (01-01:31-12),  45.22,   7.65,   1.00, 287.00
2,1, 1, 1, 0, 1, 0.00,60.00,Sunday
65,514247.77799999993
113,0.0
309,514247.77799999993
1815,7446971.880216578
2181,0.0
2348,0.0
2,1, 1, 1, 0, 2, 0.00,60.00,Sunday
65,514247.77799999993
113,0.0
309,514247.77799999993
1815,8087664.920644731
2181,0.0
2348,0.0
2,1, 1, 1, 0, 3, 0.00,60.00,Sunday
65,514247.77799999993
113,0.0
309,514247.77799999993
1815,8644242.108987615
2181,0.0
2348,0.0
2,1, 1, 1, 0, 4, 0.00,60.00,Sunday
65,514247.77799999993
113,0.0
309,514247.77799999993
1815,9082601.382444277
2181,0.0
2348,0.0
2,1, 1, 1, 0, 5, 0.00,60.00,Sunday
65,514247.77799999993
113,0.0
309,514247.77799999993
1815,9388341.109392453
2181,0.0
2348,0.0
2,1, 1, 1, 0, 6, 0.00,60.00,Sunday
65,514247.77799999993
113,0.0
309,514247.77799999993
1815,9590730.521850664
2181,0.0
2348,0.0
2,1, 1, 1, 0, 7, 0.00,60.00,Sunday
65,514247.77799999993
113,0.0
309,514247.77799999993
1815,9692369.335544795
2181,0.0
2348,0.0
2,1, 1, 1, 0, 8, 0.00,60.00,Sunday
65,514247.77799999993
113,0.0
309,514247.77799999993
1815,9732164.889634594
2181,0.0
2348,0.0
2,1, 1, 1, 0, 9, 0.00,60.00,Sunday
65,514247.77799999993
113,0.0
309,514247.77799999993
1815,9655948.175449904
2181,0.0
2348,0.0
2,1, 1, 1, 0,10, 0.00,60.00,Sunday
65,514247.77799999993
113,0.0
309,514247.77799999993
1815,9207434.050681742
2181,0.0
2348,0.0
2,1, 1, 1, 0,11, 0.00,60.00,Sunday
65,514247.77799999993
113,0.0
309,514247.77799999993
1815,8137090.105819354
2181,0.0
2348,0.0
2,1, 1, 1, 0,12, 0.00,60.00,Sunday
65,514247.77799999993
113,0.0
309,514247.77799999993
1815,6652873.333248229
2181,0.0
2348,0.0
2,1, 1, 1, 0,13, 0.00,60.00,Sunday
65,514247.77799999993
113,0.0
309,514247.77799999993
1815,5208535.939181117
2181,0.0
2348,0.0
2,1, 1, 1, 0,14, 0.00,60.00,Sunday
65,514247.77799999993
113,0.0
309,514247.77799999993
1815,4151857.10643637
2181,0.0
2348,0.0
2,1, 1, 1, 0,15, 0.00,60.00,Sunday
65,514247.77799999993
113,0.0
309,514247.77799999993
1815,3609234.7653717906
2181,0.0
2348,0.0
2,1, 1, 1, 0,16, 0.00,60.00,Sunday
65,514247.77799999993
113,0.0
309,514247.77799999993
1815,3558706.3685353054
2181,0.0
2348,0.0
2,1, 1, 1, 0,17, 0.00,60.00,Sunday
65,514247.77799999993
113,0.0
309,514247.77799999993
1815,3956993.745151376
2181,0.0
2348,0.0
2,1, 1, 1, 0,18, 0.00,60.00,Sunday
65,514247.77799999993
113,0.0
309,514247.77799999993
1815,4630503.118789112
2181,0.0
2348,0.0
2,1, 1, 1, 0,19, 0.00,60.00,Sunday
65,514247.77799999993
113,0.0
309,514247.77799999993
1815,5315101.201995198
2181,0.0
2348,0.0
2,1, 1, 1, 0,20, 0.00,60.00,Sunday
65,514247.77799999993
113,0.0
309,514247.77799999993
1815,5811881.71901679
2181,0.0
2348,0.0
2,1, 1, 1, 0,21, 0.00,60.00,Sunday
65,514247.77799999993
113,0.0
309,514247.77799999993
1815,6177486.091185526
2181,0.0
2348,0.0
2,1, 1, 1, 0,22, 0.00,60.00,Sunday
65,514247.77799999993
113,0.0
309,514247.77799999993
1815,6483717.326401872
2181,0.0
2348,0.0
2,1, 1, 1, 0,23, 0.00,60.00,Sunday
65,514247.77799999993
113,0.0
309,514247.77799999993
1815,6733159.113332329
2181,0.0
2348,0.0
2,1, 1, 1, 0,24, 0.00,60.00,Sunday
65,514247.77799999993
113,0.0
309,514247.77799999993
1815,6945016.274189009
2181,0.0
2348,0.0
3,1, 1, 1, 0,Sunday
66,12341946.67199999,128561.94449999998, 1,15,128561.94449999998, 1,15
114,0.0,0.0, 1,15,0.0, 1,15
310,12341946.67199999,128561.94449999998, 1,15,128561.94449999998, 1,15
1816,167900624.5835007,876134.7366633695,16,15,2434229.8877113913, 8,60
2182,0.0,0.0, 1,15,0.0, 1,15
2349,0.0,0.0, 1,15,0.0, 1,15
2,2, 1, 2, 0, 1, 0.00,60.00,Monday
65,514247.77799999993
113,0.0
309,514247.77799999993
1815,7128860.807929319
2181,0.0
2348,0.0
2,2, 1, 2, 0, 2, 0.00,60.00,Monday
65,514247.77799999993
113,0.0
309,514247.77799999993
1815,7238554.919556672
2181,0.0
2348,0.0
2,2, 1, 2, 0, 3, 0.00,60.00,Monday
65,514247.77799999993
113,0.0
309,514247.77799999993
1815,7303380.503400456
2181,0.0
2348,0.0
2,2, 1, 2, 0, 4, 0.00,60.00,Monday
65,514247.77799999993
113,0.0
309,514247.77799999993
1815,7330470.951738429
2181,0.0
2348,0.0
2,2, 1, 2, 0, 5, 0.00,60.00,Monday
65,514247.77799999993
113,0.0
309,514247.77799999993
1815,7368107.047883288
2181,0.0
2348,0.0
2,2, 1, 2, 0, 6, 0.00,60.00,Monday
65,514247.77799999993
113,0.0
309,514247.77799999993
1815,72876970.27594492
2181,0.0
2348,0.0
2,2, 1, 2, 0, 7, 0.00,60.00,Monday
65,514247.77799999993
113,0.0
309,514247.77799999993
1815,71710492.83167021
2181,0.0
2348,0.0
2,2, 1, 2, 0, 8, 0.00,60.00,Monday
65,25733699.999999996
113,16199999.999999996
309,9533700.0
1815,49067445.24995483
2181,0.0
2348,0.0
2,2, 1, 2, 0, 9, 0.00,60.00,Monday
65,25733699.999999996
113,16199999.999999996
309,9533700.0
1815,43017838.29761729
2181,0.0
2348,0.0
2,2, 1, 2, 0,10, 0.00,60.00,Monday
65,25733699.999999996
113,16199999.999999996
309,9533700.0
1815,45107697.21317315
2181,0.0
2348,0.0
2,2, 1, 2, 0,11, 0.00,60.00,Monday
65,25733699.999999996
113,16199999.999999996
309,9533700.0
1815,39679564.74653141
2181,0.0
2348,0.0
2,2, 1, 2, 0,12, 0.00,60.00,Monday
65,25733699.999999996
113,16199999.999999996
309,9533700.0
1815,34697920.34788697
2181,0.0
2348,0.0
2,2, 1, 2, 0,13, 0.00,60.00,Monday
65,25733699.999999996
113,16199999.999999996
309,9533700.0
1815,26304491.844941538
2181,0.0
2348,0.0
2,2, 1, 2, 0,14, 0.00,60.00,Monday
65,25733699.999999996
113,16199999.999999996
309,9533700.0
1815,23031608.22188522
2181,0.0
2348,0.0
2,2, 1, 2, 0,15, 0.00,60.00,Monday
65,25733699.999999996
113,16199999.999999996
309,9533700.0
1815,24880220.030986976
2181,0.0
2348,0.0
2,2, 1, 2, 0,16, 0.00,60.00,Monday
65,25733699.999999996
113,16199999.999999996
309,9533700.0
1815,23840697.984321754
2181,0.0
2348,0.0
2,2, 1, 2, 0,17, 0.00,60.00,Monday
65,25733699.999999996
113,16199999.999999996
309,9533700.0
1815,24143299.16247548
2181,0.0
2348,0.0
2,2, 1, 2, 0,18, 0.00,60.00,Monday
65,25733699.999999996
113,16199999.999999996
309,9533700.0
1815,17355774.45567432
2181,0.0
2348,0.0
2,2, 1, 2, 0,19, 0.00,60.00,Monday
65,25733699.999999996
113,16199999.999999996
309,9533700.0
1815,14252120.23181702
2181,0.0
2348,0.0
2,2, 1, 2, 0,20, 0.00,60.00,Monday
65,9533700.0
113,0.0
309,9533700.0
1815,0.0
2181,0.0
2348,0.0
2,2, 1, 2, 0,21, 0.00,60.00,Monday
65,514247.77799999993
113,0.0
309,514247.77799999993
1815,0.0
2181,0.0
2348,0.0
2,2, 1, 2, 0,22, 0.00,60.00,Monday
65,514247.77799999993
113,0.0
309,514247.77799999993
1815,0.0
2181,0.0
2348,0.0
2,2, 1, 2, 0,23, 0.00,60.00,Monday
65,514247.77799999993
113,0.0
309,514247.77799999993
1815,0.0
2181,0.0
2348,0.0
2,2, 1, 2, 0,24, 0.00,60.00,Monday
65,514247.77799999993
113,0.0
309,514247.77799999993
1815,0.0
2181,0.0
2348,0.0
3,2, 1, 2, 0,Monday
66,323994825.55800045,128561.94449999998, 1,15,6433424.999999999, 8,15
114,194399999.99999997,0.0, 1,15,4049999.999999999, 8,15
310,129594825.558,128561.94449999998, 1,15,2383425.0, 8,15
1816,546335515.1253893,0.0,20,15,18219242.56898623, 6,30
2182,0.0,0.0, 1,15,0.0, 1,15
2349,0.0,0.0, 1,15,0.0, 1,15
2,3, 1, 3, 0, 1, 0.00,60.00,Tuesday
65,514247.77799999993
113,0.0
309,514247.77799999993
1815,0.0
2181,0.0
2348,0.0
2,3, 1, 3, 0, 2, 0.00,60.00,Tuesday
65,514247.77799999993
113,0.0
309,514247.77799999993
1815,0.0
2181,0.0
2348,0.0
2,3, 1, 3, 0, 3, 0.00,60.00,Tuesday
65,514247.77799999993
113,0.0
309,514247.77799999993
1815,0.0
2181,0.0
2348,0.0
2,3, 1, 3, 0, 4, 0.00,60.00,Tuesday
65,514247.77799999993
113,0.0
309,514247.77799999993
1815,0.0
2181,0.0
2348,0.0
2,3, 1, 3, 0, 5, 0.00,60.00,Tuesday
65,514247.77799999993
113,0.0
309,514247.77799999993
1815,0.0
2181,0.0
2348,0.0
2,3, 1, 3, 0, 6, 0.00,60.00,Tuesday
65,514247.77799999993
113,0.0
309,514247.77799999993
1815,70871501.75826919
2181,0.0
2348,0.0
2,3, 1, 3, 0, 7, 0.00,60.00,Tuesday
65,514247.77799999993
113,0.0
309,514247.77799999993
1815,54948311.30453507
2181,0.0
2348,0.0
2,3, 1, 3, 0, 8, 0.00,60.00,Tuesday
65,25733699.999999996
113,16199999.999999996
309,9533700.0
1815,34889259.05468855
2181,0.0
2348,0.0
2,3, 1, 3, 0, 9, 0.00,60.00,Tuesday
65,25733699.999999996
113,16199999.999999996
309,9533700.0
1815,32913974.77195087
2181,0.0
2348,0.0
2,3, 1, 3, 0,10, 0.00,60.00,Tuesday
65,25733699.999999996
113,16199999.999999996
309,9533700.0
1815,38354328.85629283
2181,0.0
2348,0.0
2,3, 1, 3, 0,11, 0.00,60.00,Tuesday
65,25733699.999999996
113,16199999.999999996
309,9533700.0
1815,34376260.80688465
2181,0.0
2348,0.0
2,3, 1, 3, 0,12, 0.00,60.00,Tuesday
65,25733699.999999996
113,16199999.999999996
309,9533700.0
1815,30631829.633471936
2181,0.0
2348,0.0
2,3, 1, 3, 0,13, 0.00,60.00,Tuesday
65,25733699.999999996
113,16199999.999999996
309,9533700.0
1815,23016063.35099575
2181,0.0
2348,0.0
2,3, 1, 3, 0,14, 0.00,60.00,Tuesday
65,25733699.999999996
113,16199999.999999996
309,9533700.0
1815,20692071.506580822
2181,0.0
2348,0.0
2,3, 1, 3, 0,15, 0.00,60.00,Tuesday
65,25733699.999999996
113,16199999.999999996
309,9533700.0
1815,22890545.229829077
2181,0.0
2348,0.0
2,3, 1, 3, 0,16, 0.00,60.00,Tuesday
65,25733699.999999996
113,16199999.999999996
309,9533700.0
1815,21298330.191326167
2181,0.0
2348,0.0
2,3, 1, 3, 0,17, 0.00,60.00,Tuesday
65,25733699.999999996
113,16199999.999999996
309,9533700.0
1815,21605460.08683914
2181,0.0
2348,0.0
2,3, 1, 3, 0,18, 0.00,60.00,Tuesday
65,25733699.999999996
113,16199999.999999996
309,9533700.0
1815,13831155.774934491
2181,0.0
2348,0.0
2,3, 1, 3, 0,19, 0.00,60.00,Tuesday
65,25733699.999999996
113,16199999.999999996
309,9533700.0
1815,10022599.284289934
2181,0.0
2348,0.0
2,3, 1, 3, 0,20, 0.00,60.00,Tuesday
65,9533700.0
113,0.0
309,9533700.0
1815,0.0
2181,0.0
2348,0.0
2,3, 1, 3, 0,21, 0.00,60.00,Tuesday
65,514247.77799999993
113,0.0
309,514247.77799999993
1815,0.0
2181,0.0
2348,0.0
2,3, 1, 3, 0,22, 0.00,60.00,Tuesday
65,514247.77799999993
113,0.0
309,514247.77799999993
1815,0.0
2181,0.0
2348,0.0
2,3, 1, 3, 0,23, 0.00,60.00,Tuesday
65,514247.77799999993
113,0.0
309,514247.77799999993
1815,0.0
2181,0.0
2348,0.0
2,3, 1, 3, 0,24, 0.00,60.00,Tuesday
65,514247.77799999993
113,0.0
309,514247.77799999993
1815,0.0
2181,0.0
2348,0.0
3,3, 1, 3, 0,Tuesday
66,323994825.55800045,128561.94449999998, 1,15,6433424.999999999, 8,15
114,194399999.99999997,0.0, 1,15,4049999.999999999, 8,15
310,129594825.558,128561.94449999998, 1,15,2383425.0, 8,15
1816,430341691.6108884,0.0, 1,15,18219242.56898623, 6,15
2182,0.0,0.0, 1,15,0.0, 1,15
2349,0.0,0.0, 1,15,0.0, 1,15
2,4, 1, 4, 0, 1, 0.00,60.00,Wednesday
65,514247.77799999993
113,0.0
309,514247.77799999993
1815,0.0
2181,0.0
2348,0.0
2,4, 1, 4, 0, 2, 0.00,60.00,Wednesday
65,514247.77799999993
113,0.0
309,514247.77799999993
1815,0.0
2181,0.0
2348,0.0
2,4, 1, 4, 0, 3, 0.00,60.00,Wednesday
65,514247.77799999993
113,0.0
309,514247.77799999993
1815,0.0
2181,0.0
2348,0.0
2,4, 1, 4, 0, 4, 0.00,60.00,Wednesday
65,514247.77799999993
113,0.0
309,514247.77799999993
1815,0.0
2181,0.0
2348,0.0
2,4, 1, 4, 0, 5, 0.00,60.00,Wednesday
65,514247.77799999993
113,0.0
309,514247.77799999993
1815,0.0
2181,0.0
2348,0.0
2,4, 1, 4, 0, 6, 0.00,60.00,Wednesday
65,514247.77799999993
113,0.0
309,514247.77799999993
1815,60874763.33200769
2181,0.0
2348,0.0
2,4, 1, 4, 0, 7, 0.00,60.00,Wednesday
65,514247.77799999993
113,0.0
309,514247.77799999993
1815,45787664.16753979
2181,0.0
2348,0.0
2,4, 1, 4, 0, 8, 0.00,60.00,Wednesday
65,25733699.999999996
113,16199999.999999996
309,9533700.0
1815,28720506.434395894
2181,0.0
2348,0.0
2,4, 1, 4, 0, 9, 0.00,60.00,Wednesday
65,25733699.999999996
113,16199999.999999996
309,9533700.0
1815,28494895.67801077
2181,0.0
2348,0.0
2,4, 1, 4, 0,10, 0.00,60.00,Wednesday
65,25733699.999999996
113,16199999.999999996
309,9533700.0
1815,34524119.078010604
2181,0.0
2348,0.0
2,4, 1, 4, 0,11, 0.00,60.00,Wednesday
65,25733699.999999996
113,16199999.999999996
309,9533700.0
1815,30364528.578357622
2181,0.0
2348,0.0
2,4, 1, 4, 0,12, 0.00,60.00,Wednesday
65,25733699.999999996
113,16199999.999999996
309,9533700.0
1815,26453110.54648248
2181,0.0
2348,0.0
2,4, 1, 4, 0,13, 0.00,60.00,Wednesday
65,25733699.999999996
113,16199999.999999996
309,9533700.0
1815,19099440.55776597
2181,0.0
2348,0.0
2,4, 1, 4, 0,14, 0.00,60.00,Wednesday
65,25733699.999999996
113,16199999.999999996
309,9533700.0
1815,17489951.482672073
2181,0.0
2348,0.0
2,4, 1, 4, 0,15, 0.00,60.00,Wednesday
65,25733699.999999996
113,16199999.999999996
309,9533700.0
1815,20632195.40714415
2181,0.0
2348,0.0
2,4, 1, 4, 0,16, 0.00,60.00,Wednesday
65,25733699.999999996
113,16199999.999999996
309,9533700.0
1815,19697190.135365505
2181,0.0
2348,0.0
2,4, 1, 4, 0,17, 0.00,60.00,Wednesday
65,25733699.999999996
113,16199999.999999996
309,9533700.0
1815,20347199.215169117
2181,0.0
2348,0.0
2,4, 1, 4, 0,18, 0.00,60.00,Wednesday
65,25733699.999999996
113,16199999.999999996
309,9533700.0
1815,12669537.297621697
2181,0.0
2348,0.0
2,4, 1, 4, 0,19, 0.00,60.00,Wednesday
65,25733699.999999996
113,16199999.999999996
309,9533700.0
1815,9469370.145534016
2181,0.0
2348,0.0
2,4, 1, 4, 0,20, 0.00,60.00,Wednesday
65,9533700.0
113,0.0
309,9533700.0
1815,0.0
2181,0.0
2348,0.0
2,4, 1, 4, 0,21, 0.00,60.00,Wednesday
65,514247.77799999993
113,0.0
309,514247.77799999993
1815,0.0
2181,0.0
2348,0.0
2,4, 1, 4, 0,22, 0.00,60.00,Wednesday
65,514247.77799999993
113,0.0
309,514247.77799999993
1815,0.0
2181,0.0
2348,0.0
2,4, 1, 4, 0,23, 0.00,60.00,Wednesday
65,514247.77799999993
113,0.0
309,514247.77799999993
1815,0.0
2181,0.0
2348,0.0
2,4, 1, 4, 0,24, 0.00,60.00,Wednesday
65,514247.77799999993
113,0.0
309,514247.77799999993
1815,0.0
2181,0.0
2348,0.0
3,4, 1, 4, 0,Wednesday
66,323994825.55800045,128561.94449999998, 1,15,6433424.999999999, 8,15
114,194399999.99999997,0.0, 1,15,4049999.999999999, 8,15
310,129594825.558,128561.94449999998, 1,15,2383425.0, 8,15
1816,374624472.05607736,0.0, 1,15,16804232.001316756, 6,30
2182,0.0,0.0, 1,15,0.0, 1,15
2349,0.0,0.0, 1,15,0.0, 1,15
2,5, 1, 5, 0, 1, 0.00,60.00,Thursday
65,514247.77799999993
113,0.0
309,514247.77799999993
1815,0.0
2181,0.0
2348,0.0
2,5, 1, 5, 0, 2, 0.00,60.00,Thursday
65,514247.77799999993
113,0.0
309,514247.77799999993
1815,0.0
2181,0.0
2348,0.0
2,5, 1, 5, 0, 3, 0.00,60.00,Thursday
65,514247.77799999993
113,0.0
309,514247.77799999993
1815,0.0
2181,0.0
2348,0.0
2,5, 1, 5, 0, 4, 0.00,60.00,Thursday
65,514247.77799999993
113,0.0
309,514247.77799999993
1815,0.0
2181,0.0
2348,0.0
2,5, 1, 5, 0, 5, 0.00,60.00,Thursday
65,514247.77799999993
113,0.0
309,514247.77799999993
1815,0.0
2181,0.0
2348,0.0
2,5, 1, 5, 0, 6, 0.00,60.00,Thursday
65,514247.77799999993
113,0.0
309,514247.77799999993
1815,69142513.99513786
2181,0.0
2348,0.0
2,5, 1, 5, 0, 7, 0.00,60.00,Thursday
65,514247.77799999993
113,0.0
309,514247.77799999993
1815,53574287.457886204
2181,0.0
2348,0.0
2,5, 1, 5, 0, 8, 0.00,60.00,Thursday
65,25733699.999999996
113,16199999.999999996
309,9533700.0
1815,36971180.88605553
2181,0.0
2348,0.0
2,5, 1, 5, 0, 9, 0.00,60.00,Thursday
65,25733699.999999996
113,16199999.999999996
309,9533700.0
1815,36681698.14647673
2181,0.0
2348,0.0
2,5, 1, 5, 0,10, 0.00,60.00,Thursday
65,25733699.999999996
113,16199999.999999996
309,9533700.0
1815,41444094.3403682
2181,0.0
2348,0.0
2,5, 1, 5, 0,11, 0.00,60.00,Thursday
65,25733699.999999996
113,16199999.999999996
309,9533700.0
1815,33788390.32545431
2181,0.0
2348,0.0
2,5, 1, 5, 0,12, 0.00,60.00,Thursday
65,25733699.999999996
113,16199999.999999996
309,9533700.0
1815,26639162.61697144
2181,0.0
2348,0.0
2,5, 1, 5, 0,13, 0.00,60.00,Thursday
65,25733699.999999996
113,16199999.999999996
309,9533700.0
1815,16514426.920784712
2181,0.0
2348,0.0
2,5, 1, 5, 0,14, 0.00,60.00,Thursday
65,25733699.999999996
113,16199999.999999996
309,9533700.0
1815,13623524.07984029
2181,0.0
2348,0.0
2,5, 1, 5, 0,15, 0.00,60.00,Thursday
65,25733699.999999996
113,16199999.999999996
309,9533700.0
1815,16554284.00398555
2181,0.0
2348,0.0
2,5, 1, 5, 0,16, 0.00,60.00,Thursday
65,25733699.999999996
113,16199999.999999996
309,9533700.0
1815,16261522.501851369
2181,0.0
2348,0.0
2,5, 1, 5, 0,17, 0.00,60.00,Thursday
65,25733699.999999996
113,16199999.999999996
309,9533700.0
1815,17591824.097381316
2181,0.0
2348,0.0
2,5, 1, 5, 0,18, 0.00,60.00,Thursday
65,25733699.999999996
113,16199999.999999996
309,9533700.0
1815,10979019.585139569
2181,0.0
2348,0.0
2,5, 1, 5, 0,19, 0.00,60.00,Thursday
65,25733699.999999996
113,16199999.999999996
309,9533700.0
1815,8389583.62474535
2181,0.0
2348,0.0
2,5, 1, 5, 0,20, 0.00,60.00,Thursday
65,9533700.0
113,0.0
309,9533700.0
1815,0.0
2181,0.0
2348,0.0
2,5, 1, 5, 0,21, 0.00,60.00,Thursday
65,514247.77799999993
113,0.0
309,514247.77799999993
1815,0.0
2181,0.0
2348,0.0
2,5, 1, 5, 0,22, 0.00,60.00,Thursday
65,514247.77799999993
113,0.0
309,514247.77799999993
1815,0.0
2181,0.0
2348,0.0
2,5, 1, 5, 0,23, 0.00,60.00,Thursday
65,514247.77799999993
113,0.0
309,514247.77799999993
1815,0.0
2181,0.0
2348,0.0
2,5, 1, 5, 0,24, 0.00,60.00,Thursday
65,514247.77799999993
113,0.0
309,514247.77799999993
1815,0.0
2181,0.0
2348,0.0
3,5, 1, 5, 0,Thursday
66,323994825.55800045,128561.94449999998, 1,15,6433424.999999999, 8,15
114,194399999.99999997,0.0, 1,15,4049999.999999999, 8,15
310,129594825.558,128561.94449999998, 1,15,2383425.0, 8,15
1816,398155512.58207834,0.0, 1,15,18219242.56898623, 6,30
2182,0.0,0.0, 1,15,0.0, 1,15
2349,0.0,0.0, 1,15,0.0, 1,15
2,6, 1, 6, 0, 1, 0.00,60.00,Friday
65,514247.77799999993
113,0.0
309,514247.77799999993
1815,0.0
2181,0.0
2348,0.0
2,6, 1, 6, 0, 2, 0.00,60.00,Friday
65,514247.77799999993
113,0.0
309,514247.77799999993
1815,0.0
2181,0.0
2348,0.0
2,6, 1, 6, 0, 3, 0.00,60.00,Friday
65,514247.77799999993
113,0.0
309,514247.77799999993
1815,0.0
2181,0.0
2348,0.0
2,6, 1, 6, 0, 4, 0.00,60.00,Friday
65,514247.77799999993
113,0.0
309,514247.77799999993
1815,0.0
2181,0.0
2348,0.0
2,6, 1, 6, 0, 5, 0.00,60.00,Friday
65,514247.77799999993
113,0.0
309,514247.77799999993
1815,0.0
2181,0.0
2348,0.0
2,6, 1, 6, 0, 6, 0.00,60.00,Friday
65,514247.77799999993
113,0.0
309,514247.77799999993
1815,64749931.31711012
2181,0.0
2348,0.0
2,6, 1, 6, 0, 7, 0.00,60.00,Friday
65,514247.77799999993
113,0.0
309,514247.77799999993
1815,48655626.95621474
2181,0.0
2348,0.0
2,6, 1, 6, 0, 8, 0.00,60.00,Friday
65,25733699.999999996
113,16199999.999999996
309,9533700.0
1815,31110242.402175795
2181,0.0
2348,0.0
2,6, 1, 6, 0, 9, 0.00,60.00,Friday
65,25733699.999999996
113,16199999.999999996
309,9533700.0
1815,30810989.082951706
2181,0.0
2348,0.0
2,6, 1, 6, 0,10, 0.00,60.00,Friday
65,25733699.999999996
113,16199999.999999996
309,9533700.0
1815,37896349.21206314
2181,0.0
2348,0.0
2,6, 1, 6, 0,11, 0.00,60.00,Friday
65,25733699.999999996
113,16199999.999999996
309,9533700.0
1815,34188195.89957825
2181,0.0
2348,0.0
2,6, 1, 6, 0,12, 0.00,60.00,Friday
65,25733699.999999996
113,16199999.999999996
309,9533700.0
1815,29945670.23356186
2181,0.0
2348,0.0
2,6, 1, 6, 0,13, 0.00,60.00,Friday
65,25733699.999999996
113,16199999.999999996
309,9533700.0
1815,21307245.167002514
2181,0.0
2348,0.0
2,6, 1, 6, 0,14, 0.00,60.00,Friday
65,25733699.999999996
113,16199999.999999996
309,9533700.0
1815,18244562.183464013
2181,0.0
2348,0.0
2,6, 1, 6, 0,15, 0.00,60.00,Friday
65,25733699.999999996
113,16199999.999999996
309,9533700.0
1815,20301145.93810187
2181,0.0
2348,0.0
2,6, 1, 6, 0,16, 0.00,60.00,Friday
65,25733699.999999996
113,16199999.999999996
309,9533700.0
1815,18969792.044241477
2181,0.0
2348,0.0
2,6, 1, 6, 0,17, 0.00,60.00,Friday
65,25733699.999999996
113,16199999.999999996
309,9533700.0
1815,20040901.180761974
2181,0.0
2348,0.0
2,6, 1, 6, 0,18, 0.00,60.00,Friday
65,25733699.999999996
113,16199999.999999996
309,9533700.0
1815,13402896.334497675
2181,0.0
2348,0.0
2,6, 1, 6, 0,19, 0.00,60.00,Friday
65,25733699.999999996
113,16199999.999999996
309,9533700.0
1815,10730088.091547953
2181,0.0
2348,0.0
2,6, 1, 6, 0,20, 0.00,60.00,Friday
65,9533700.0
113,0.0
309,9533700.0
1815,0.0
2181,0.0
2348,0.0
2,6, 1, 6, 0,21, 0.00,60.00,Friday
65,514247.77799999993
113,0.0
309,514247.77799999993
1815,0.0
2181,0.0
2348,0.0
2,6, 1, 6, 0,22, 0.00,60.00,Friday
65,514247.77799999993
113,0.0
309,514247.77799999993
1815,0.0
2181,0.0
2348,0.0
2,6, 1, 6, 0,23, 0.00,60.00,Friday
65,514247.77799999993
113,0.0
309,514247.77799999993
1815,0.0
2181,0.0
2348,0.0
2,6, 1, 6, 0,24, 0.00,60.00,Friday
65,514247.77799999993
113,0.0
309,514247.77799999993
1815,0.0
2181,0.0
2348,0.0
3,6, 1, 6, 0,Friday
66,323994825.55800045,128561.94449999998, 1,15,6433424.999999999, 8,15
114,194399999.99999997,0.0, 1,15,4049999.999999999, 8,15
310,129594825.558,128561.94449999998, 1,15,2383425.0, 8,15
1816,400353636.04327315,0.0, 1,15,17735735.333890926, 6,30
2182,0.0,0.0, 1,15,0.0, 1,15
2349,0.0,0.0, 1,15,0.0, 1,15
2,7, 1, 7, 0, 1, 0.00,60.00,Saturday
65,514247.77799999993
113,0.0
309,514247.77799999993
1815,0.0
2181,0.0
2348,0.0
2,7, 1, 7, 0, 2, 0.00,60.00,Saturday
65,514247.77799999993
113,0.0
309,514247.77799999993
1815,0.0
2181,0.0
2348,0.0
2,7, 1, 7, 0, 3, 0.00,60.00,Saturday
65,514247.77799999993
113,0.0
309,514247.77799999993
1815,0.0
2181,0.0
2348,0.0
2,7, 1, 7, 0, 4, 0.00,60.00,Saturday
65,514247.77799999993
113,0.0
309,514247.77799999993
1815,0.0
2181,0.0
2348,0.0
2,7, 1, 7, 0, 5, 0.00,60.00,Saturday
65,514247.77799999993
113,0.0
309,514247.77799999993
1815,0.0
2181,0.0
2348,0.0
2,7, 1, 7, 0, 6, 0.00,60.00,Saturday
65,514247.77799999993
113,0.0
309,514247.77799999993
1815,0.0
2181,0.0
2348,0.0
2,7, 1, 7, 0, 7, 0.00,60.00,Saturday
65,514247.77799999993
113,0.0
309,514247.77799999993
1815,32323.209997430604
2181,0.0
2348,0.0
2,7, 1, 7, 0, 8, 0.00,60.00,Saturday
65,514247.77799999993
113,0.0
309,514247.77799999993
1815,1519790.9758932267
2181,0.0
2348,0.0
2,7, 1, 7, 0, 9, 0.00,60.00,Saturday
65,514247.77799999993
113,0.0
309,514247.77799999993
1815,2925891.802855278
2181,0.0
2348,0.0
2,7, 1, 7, 0,10, 0.00,60.00,Saturday
65,514247.77799999993
113,0.0
309,514247.77799999993
1815,3030026.7355331024
2181,0.0
2348,0.0
2,7, 1, 7, 0,11, 0.00,60.00,Saturday
65,514247.77799999993
113,0.0
309,514247.77799999993
1815,1058751.4302116344
2181,0.0
2348,0.0
2,7, 1, 7, 0,12, 0.00,60.00,Saturday
65,514247.77799999993
113,0.0
309,514247.77799999993
1815,0.0
2181,0.0
2348,0.0
2,7, 1, 7, 0,13, 0.00,60.00,Saturday
65,514247.77799999993
113,0.0
309,514247.77799999993
1815,0.0
2181,0.0
2348,0.0
2,7, 1, 7, 0,14, 0.00,60.00,Saturday
65,514247.77799999993
113,0.0
309,514247.77799999993
1815,0.0
2181,0.0
2348,0.0
2,7, 1, 7, 0,15, 0.00,60.00,Saturday
65,514247.77799999993
113,0.0
309,514247.77799999993
1815,0.0
2181,0.0
2348,0.0
2,7, 1, 7, 0,16, 0.00,60.00,Saturday
65,514247.77799999993
113,0.0
309,514247.77799999993
1815,0.0
2181,0.0
2348,0.0
2,7, 1, 7, 0,17, 0.00,60.00,Saturday
65,514247.77799999993
113,0.0
309,514247.77799999993
1815,0.0
2181,0.0
2348,0.0
2,7, 1, 7, 0,18, 0.00,60.00,Saturday
65,514247.77799999993
113,0.0
309,514247.77799999993
1815,0.0
2181,0.0
2348,0.0
2,7, 1, 7, 0,19, 0.00,60.00,Saturday
65,514247.77799999993
113,0.0
309,514247.77799999993
1815,0.0
2181,0.0
2348,0.0
2,7, 1, 7, 0,20, 0.00,60.00,Saturday
65,514247.77799999993
113,0.0
309,514247.77799999993
1815,0.0
2181,0.0
2348,0.0
2,7, 1, 7, 0,21, 0.00,60.00,Saturday
65,514247.77799999993
113,0.0
309,514247.77799999993
1815,67496.29994098106
2181,0.0
2348,0.0
2,7, 1, 7, 0,22, 0.00,60.00,Saturday
65,514247.77799999993
113,0.0
309,514247.77799999993
1815,1145233.9502960204
2181,0.0
2348,0.0
2,7, 1, 7, 0,23, 0.00,60.00,Saturday
65,514247.77799999993
113,0.0
309,514247.77799999993
1815,2371322.508788381
2181,0.0
2348,0.0
2,7, 1, 7, 0,24, 0.00,60.00,Saturday
65,514247.77799999993
113,0.0
309,514247.77799999993
1815,3295673.295134117
2181,0.0
2348,0.0
3,7, 1, 7, 0,Saturday
66,12341946.67199999,128561.94449999998, 1,15,128561.94449999998, 1,15
114,0.0,0.0, 1,15,0.0, 1,15
310,12341946.67199999,128561.94449999998, 1,15,128561.94449999998, 1,15
1816,15446510.20865017,0.0, 1,15,902292.3514639873,24,60
2182,0.0,0.0, 1,15,0.0, 1,15
2349,0.0,0.0, 1,15,0.0, 1,15
2,8, 1, 8, 0, 1, 0.00,60.00,Sunday
65,514247.77799999993
113,0.0
309,514247.77799999993
1815,4112857.103210545
2181,0.0
2348,0.0
2,8, 1, 8, 0, 2, 0.00,60.00,Sunday
65,514247.77799999993
113,0.0
309,514247.77799999993
1815,4990176.892764427
2181,0.0
2348,0.0
2,8, 1, 8, 0, 3, 0.00,60.00,Sunday
65,514247.77799999993
113,0.0
309,514247.77799999993
1815,5956067.202702105
2181,0.0
2348,0.0
2,8, 1, 8, 0, 4, 0.00,60.00,Sunday
65,514247.77799999993
113,0.0
309,514247.77799999993
1815,6975026.267505444
2181,0.0
2348,0.0
2,8, 1, 8, 0, 5, 0.00,60.00,Sunday
65,514247.77799999993
113,0.0
309,514247.77799999993
1815,7908566.3516800795
2181,0.0
2348,0.0
2,8, 1, 8, 0, 6, 0.00,60.00,Sunday
65,514247.77799999993
113,0.0
309,514247.77799999993
1815,8707237.209645588
2181,0.0
2348,0.0
2,8, 1, 8, 0, 7, 0.00,60.00,Sunday
65,514247.77799999993
113,0.0
309,514247.77799999993
1815,9388673.387728153
2181,0.0
2348,0.0
2,8, 1, 8, 0, 8, 0.00,60.00,Sunday
65,514247.77799999993
113,0.0
309,514247.77799999993
1815,9847974.863714263
2181,0.0
2348,0.0
2,8, 1, 8, 0, 9, 0.00,60.00,Sunday
65,514247.77799999993
113,0.0
309,514247.77799999993
1815,10072591.691904841
2181,0.0
2348,0.0
2,8, 1, 8, 0,10, 0.00,60.00,Sunday
65,514247.77799999993
113,0.0
309,514247.77799999993
1815,9796899.742985189
2181,0.0
2348,0.0
2,8, 1, 8, 0,11, 0.00,60.00,Sunday
65,514247.77799999993
113,0.0
309,514247.77799999993
1815,8553328.32705868
2181,0.0
2348,0.0
2,8, 1, 8, 0,12, 0.00,60.00,Sunday
65,514247.77799999993
113,0.0
309,514247.77799999993
1815,6656799.330468684
2181,0.0
2348,0.0
2,8, 1, 8, 0,13, 0.00,60.00,Sunday
65,514247.77799999993
113,0.0
309,514247.77799999993
1815,4827993.087377844
2181,0.0
2348,0.0
2,8, 1, 8, 0,14, 0.00,60.00,Sunday
65,514247.77799999993
113,0.0
309,514247.77799999993
1815,3632808.1606828514
2181,0.0
2348,0.0
2,8, 1, 8, 0,15, 0.00,60.00,Sunday
65,514247.77799999993
113,0.0
309,514247.77799999993
1815,3167065.288113881
2181,0.0
2348,0.0
2,8, 1, 8, 0,16, 0.00,60.00,Sunday
65,514247.77799999993
113,0.0
309,514247.77799999993
1815,3367549.6454501045
2181,0.0
2348,0.0
2,8, 1, 8, 0,17, 0.00,60.00,Sunday
65,514247.77799999993
113,0.0
309,514247.77799999993
1815,4165793.3073851806
2181,0.0
2348,0.0
2,8, 1, 8, 0,18, 0.00,60.00,Sunday
65,514247.77799999993
113,0.0
309,514247.77799999993
1815,5347508.774529647
2181,0.0
2348,0.0
2,8, 1, 8, 0,19, 0.00,60.00,Sunday