Program Version,EnergyPlus, Version 9.6.0-f420c06a69, YMD=2025.09.19 11:05
1,5,Environment Title[],Latitude[deg],Longitude[deg],Time Zone[],Elevation[m]
2,8,Day of Simulation[],Month[],Day of Month[],DST Indicator[1=yes 0=no],Hour[],StartMinute[],EndMinute[],DayType
3,5,Cumulative Day of Simulation[],Month[],Day of Month[],DST Indicator[1=yes 0=no],DayType  ! When Daily Meters Requested
4,2,Cumulative Days of Simulation[],Month[]  ! When Monthly Meters Requested
5,1,Cumulative Days of Simulation[] ! When Run Period Meters Requested
6,1,Calendar Year of Simulation[] ! When Annual Meters Requested
17,1,Electricity:Facility [J] !TimeStep
504,1,InteriorEquipment:Electricity [J] !TimeStep
65,1,InteriorLights:Electricity [J] !TimeStep
1703,1,DistrictHeating:Facility [J] !Hourly
2170,1,DistrictCooling:Facility [J] !Hourly
18,1,Electricity:Facility [J] !Hourly
2231,1,Carbon Equivalent:Facility [kg] !Hourly
19,7,Electricity:Facility [J] !Daily [Value,Min,Hour,Minute,Max,Hour,Minute]
2171,7,DistrictCooling:Facility [J] !Daily [Value,Min,Hour,Minute,Max,Hour,Minute]
1704,7,DistrictHeating:Facility [J] !Daily [Value,Min,Hour,Minute,Max,Hour,Minute]
2232,7,Carbon Equivalent:Facility [kg] !Daily [Value,Min,Hour,Minute,Max,Hour,Minute]
20,9,Electricity:Facility [J] !Monthly [Value,Min,Day,Hour,Minute,Max,Day,Hour,Minute]
2172,9,DistrictCooling:Facility [J] !Monthly [Value,Min,Day,Hour,Minute,Max,Day,Hour,Minute]
1705,9,DistrictHeating:Facility [J] !Monthly [Value,Min,Day,Hour,Minute,Max,Day,Hour,Minute]
2233,9,Carbon Equivalent:Facility [kg] !Monthly [Value,Min,Day,Hour,Minute,Max,Day,Hour,Minute]
22,11,Electricity:Facility [J] !RunPeriod [Value,Min,Month,Day,Hour,Minute,Max,Month,Day,Hour,Minute]
2174,11,DistrictCooling:Facility [J] !RunPeriod [Value,Min,Month,Day,Hour,Minute,Max,Month,Day,Hour,Minute]
1707,11,DistrictHeating:Facility [J] !RunPeriod [Value,Min,Month,Day,Hour,Minute,Max,Month,Day,Hour,Minute]
2235,11,Carbon Equivalent:Facility [kg] !RunPeriod [Value,Min,Month,Day,Hour,Minute,Max,Month,Day,Hour,Minute]
2169,1,DistrictCooling:Facility [J] !TimeStep
1702,1,DistrictHeating:Facility [J] !TimeStep
2230,1,Carbon Equivalent:Facility [kg] !TimeStep
End of Data Dictionary
1,YEAR_SIMULATION,  37.62,-122.40,  -8.00,   2.00
2,1, 1, 1, 0, 1, 0.00,30.00,Sunday
17,58727.76483795633
65,0.0
504,58727.76483795633
1702,154263.90227889258
2169,0.0
2230,0.0
2,1, 1, 1, 0, 1,30.00,60.00,Sunday
17,58727.76483795633
65,0.0
504,58727.76483795633
1702,154263.90227889258
2169,0.0
2230,0.0
2,1, 1, 1, 0, 1, 0.00,60.00,Sunday
18,117455.52967591266
1703,308527.80455778516
2170,0.0
2231,0.0
2,1, 1, 1, 0, 2, 0.00,30.00,Sunday
17,58727.76483795633
65,0.0
504,58727.76483795633
1702,154263.90227889258
2169,0.0
2230,0.0
2,1, 1, 1, 0, 2,30.00,60.00,Sunday
17,58727.76483795633
65,0.0
504,58727.76483795633
1702,154263.90227889258
2169,0.0
2230,0.0
2,1, 1, 1, 0, 2, 0.00,60.00,Sunday
18,117455.52967591266
1703,308527.80455778516
2170,0.0
2231,0.0
2,1, 1, 1, 0, 3, 0.00,30.00,Sunday
17,58727.76483795633
65,0.0
504,58727.76483795633
1702,154263.90227889258
2169,0.0
2230,0.0
2,1, 1, 1, 0, 3,30.00,60.00,Sunday
17,58727.76483795633
65,0.0
504,58727.76483795633
1702,154263.90227889258
2169,0.0
2230,0.0
2,1, 1, 1, 0, 3, 0.00,60.00,Sunday
18,117455.52967591266
1703,308527.80455778516
2170,0.0
2231,0.0
2,1, 1, 1, 0, 4, 0.00,30.00,Sunday
17,58727.76483795633
65,0.0
504,58727.76483795633
1702,154263.90227889258
2169,0.0
2230,0.0
2,1, 1, 1, 0, 4,30.00,60.00,Sunday
17,58727.76483795633
65,0.0
504,58727.76483795633
1702,154263.90227889258
2169,0.0
2230,0.0
2,1, 1, 1, 0, 4, 0.00,60.00,Sunday
18,117455.52967591266
1703,308527.80455778516
2170,0.0
2231,0.0
2,1, 1, 1, 0, 5, 0.00,30.00,Sunday
17,58727.76483795633
65,0.0
504,58727.76483795633
1702,154263.90227889258
2169,0.0
2230,0.0
2,1, 1, 1, 0, 5,30.00,60.00,Sunday
17,58727.76483795633
65,0.0
504,58727.76483795633
1702,173119.23673596163
2169,0.0
2230,0.0
2,1, 1, 1, 0, 5, 0.00,60.00,Sunday
18,117455.52967591266
1703,327383.1390148542
2170,0.0
2231,0.0
2,1, 1, 1, 0, 6, 0.00,30.00,Sunday
17,58727.76483795633
65,0.0
504,58727.76483795633
1702,179768.33517510764
2169,0.0
2230,0.0
2,1, 1, 1, 0, 6,30.00,60.00,Sunday
17,58727.76483795633
65,0.0
504,58727.76483795633
1702,187902.887550865
2169,0.0
2230,0.0
2,1, 1, 1, 0, 6, 0.00,60.00,Sunday
18,117455.52967591266
1703,367671.22272597265
2170,0.0
2231,0.0
2,1, 1, 1, 0, 7, 0.00,30.00,Sunday
17,668470.2156142611
65,580414.0970325931
504,88056.11858166804
1702,521904.99231261946
2169,0.0
2230,0.0
2,1, 1, 1, 0, 7,30.00,60.00,Sunday
17,668470.2156142611
65,580414.0970325931
504,88056.11858166804
1702,517342.4562479942
2169,0.0
2230,0.0
2,1, 1, 1, 0, 7, 0.00,60.00,Sunday
18,1336940.4312285222
1703,1039247.4485606137
2170,0.0
2231,0.0
2,1, 1, 1, 0, 8, 0.00,30.00,Sunday
17,1917375.8731892435
65,1165588.0182037808
504,751787.8549854629
1702,1680375.678166627
2169,0.0
2230,0.0
2,1, 1, 1, 0, 8,30.00,60.00,Sunday
17,1073538.172370249
65,321750.31738478603
504,751787.8549854629
1702,1695585.7004181198
2169,0.0
2230,0.0
2,1, 1, 1, 0, 8, 0.00,60.00,Sunday
18,2990914.0455594924
1703,3375961.3785847467
2170,0.0
2231,0.0
2,1, 1, 1, 0, 9, 0.00,30.00,Sunday
17,1112597.0383115483
65,261833.64312784956
504,850763.3951836987
1702,1641809.702596904
2169,0.0
2230,0.0
2,1, 1, 1, 0, 9,30.00,60.00,Sunday
17,1084343.3631531717
65,233579.96796947293
504,850763.3951836987
1702,1641809.7025969035
2169,0.0
2230,0.0
2,1, 1, 1, 0, 9, 0.00,60.00,Sunday
18,2196940.4014647203
1703,3283619.4051938076
2170,0.0
2231,0.0
2,1, 1, 1, 0,10, 0.00,30.00,Sunday
17,878656.9723040442
65,214852.9012380251
504,663804.071066019
1702,592127.6691284887
2169,0.0
2230,0.0
2,1, 1, 1, 0,10,30.00,60.00,Sunday
17,864604.1809492279
65,200800.1098832088
504,663804.071066019
1702,592127.6691284887
2169,0.0
2230,0.0
2,1, 1, 1, 0,10, 0.00,60.00,Sunday
18,1743261.1532532722
1703,1184255.3382569775
2170,0.0
2231,0.0
2,1, 1, 1, 0,11, 0.00,30.00,Sunday
17,107672.10873608143
65,42333.477968966865
504,65338.63076711455
1702,37588.857316845766
2169,0.0
2230,0.0
2,1, 1, 1, 0,11,30.00,60.00,Sunday
17,107672.10873608143
65,42333.477968966865
504,65338.63076711455
1702,37588.857316845766
2169,0.0
2230,0.0
2,1, 1, 1, 0,11, 0.00,60.00,Sunday
18,215344.21747216285
1703,75177.71463369153
2170,0.0
2231,0.0
2,1, 1, 1, 0,12, 0.00,30.00,Sunday
17,107672.10873608143
65,42333.477968966865
504,65338.63076711455
1702,37588.857316845766
2169,0.0
2230,0.0
2,1, 1, 1, 0,12,30.00,60.00,Sunday
17,107672.10873608143
65,42333.477968966865
504,65338.63076711455
1702,37588.857316845766
2169,0.0
2230,0.0
2,1, 1, 1, 0,12, 0.00,60.00,Sunday
18,215344.21747216285
1703,75177.71463369153
2170,0.0
2231,0.0
2,1, 1, 1, 0,13, 0.00,30.00,Sunday
17,107672.10873608143
65,42333.477968966865
504,65338.63076711455
1702,37588.857316845766
2169,0.0
2230,0.0
2,1, 1, 1, 0,13,30.00,60.00,Sunday
17,107672.10873608143
65,42333.477968966865
504,65338.63076711455
1702,37588.857316845766
2169,0.0
2230,0.0
2,1, 1, 1, 0,13, 0.00,60.00,Sunday
18,215344.21747216285
1703,75177.71463369153
2170,0.0
2231,0.0
2,1, 1, 1, 0,14, 0.00,30.00,Sunday
17,107672.10873608143
65,42333.477968966865
504,65338.63076711455
1702,37588.857316845766
2169,0.0
2230,0.0
2,1, 1, 1, 0,14,30.00,60.00,Sunday
17,107672.10873608143
65,42333.477968966865
504,65338.63076711455
1702,37588.857316845766
2169,0.0
2230,0.0
2,1, 1, 1, 0,14, 0.00,60.00,Sunday
18,215344.21747216285
1703,75177.71463369153
2170,0.0
2231,0.0
2,1, 1, 1, 0,15, 0.00,30.00,Sunday
17,107672.10873608143
65,42333.477968966865
504,65338.63076711455
1702,37588.857316845766
2169,0.0
2230,0.0
2,1, 1, 1, 0,15,30.00,60.00,Sunday
17,107672.10873608143
65,42333.477968966865
504,65338.63076711455
1702,37588.857316845766
2169,0.0
2230,0.0
2,1, 1, 1, 0,15, 0.00,60.00,Sunday
18,215344.21747216285
1703,75177.71463369153
2170,0.0
2231,0.0
2,1, 1, 1, 0,16, 0.00,30.00,Sunday
17,107672.10873608143
65,42333.477968966865
504,65338.63076711455
1702,37588.857316845766
2169,0.0
2230,0.0
2,1, 1, 1, 0,16,30.00,60.00,Sunday
17,107672.10873608143
65,42333.477968966865
504,65338.63076711455
1702,37588.857316845766
2169,0.0
2230,0.0
2,1, 1, 1, 0,16, 0.00,60.00,Sunday
18,215344.21747216285
1703,75177.71463369153
2170,0.0
2231,0.0
2,1, 1, 1, 0,17, 0.00,30.00,Sunday
17,107672.10873608143
65,42333.477968966865
504,65338.63076711455
1702,37588.857316845766
2169,0.0
2230,0.0
2,1, 1, 1, 0,17,30.00,60.00,Sunday
17,107672.10873608143
65,42333.477968966865
504,65338.63076711455
1702,37588.857316845766
2169,0.0
2230,0.0
2,1, 1, 1, 0,17, 0.00,60.00,Sunday
18,215344.21747216285
1703,75177.71463369153
2170,0.0
2231,0.0
2,1, 1, 1, 0,18, 0.00,30.00,Sunday
17,157160.7813231845
65,42333.477968966865
504,114827.30335421761
1702,37588.857316845766
2169,0.0
2230,0.0
2,1, 1, 1, 0,18,30.00,60.00,Sunday
17,157160.7813231845
65,42333.477968966865
504,114827.30335421761
1702,37588.857316845766
2169,0.0
2230,0.0
2,1, 1, 1, 0,18, 0.00,60.00,Sunday
18,314321.562646369
1703,75177.71463369153
2170,0.0
2231,0.0
2,1, 1, 1, 0,19, 0.00,30.00,Sunday
17,845720.2584303042
65,622747.57500156
504,222972.68342874412
1702,711666.229249307
2169,0.0
2230,0.0
2,1, 1, 1, 0,19,30.00,60.00,Sunday
17,845720.2584303042
65,622747.57500156
504,222972.68342874412
1702,711666.229249307
2169,0.0
2230,0.0
2,1, 1, 1, 0,19, 0.00,60.00,Sunday
18,1691440.5168606085
1703,1423332.458498614
2170,0.0
2231,0.0
2,1, 1, 1, 0,20, 0.00,30.00,Sunday
17,1299317.152900182
65,874170.2234083756
504,425146.9294918063
1702,1429243.6263508506
2169,0.0
2230,0.0
2,1, 1, 1, 0,20,30.00,60.00,Sunday
17,1299317.152900182
65,874170.2234083756
504,425146.9294918063
1702,1429243.6263508506
2169,0.0
2230,0.0
2,1, 1, 1, 0,20, 0.00,60.00,Sunday
18,2598634.305800364
1703,2858487.252701701
2170,0.0
2231,0.0
2,1, 1, 1, 0,21, 0.00,30.00,Sunday
17,1348805.825487285
65,874170.2234083756
504,474635.6020789094
1702,1429243.6263508506
2169,0.0
2230,0.0
2,1, 1, 1, 0,21,30.00,60.00,Sunday
17,1348805.825487285
65,874170.2234083756
504,474635.6020789094
1702,1429243.6263508506
2169,0.0
2230,0.0
2,1, 1, 1, 0,21, 0.00,60.00,Sunday
18,2697611.65097457
1703,2858487.252701701
2170,0.0
2231,0.0
2,1, 1, 1, 0,22, 0.00,30.00,Sunday
17,1266687.4568542454
65,874170.2234083756
504,392517.23344586964
1702,485535.30564540497
2169,0.0
2230,0.0
2,1, 1, 1, 0,22,30.00,60.00,Sunday
17,1266687.4568542454
65,874170.2234083756
504,392517.23344586964
1702,485535.30564540497
2169,0.0
2230,0.0
2,1, 1, 1, 0,22, 0.00,60.00,Sunday
18,2533374.913708491
1703,971070.6112908099
2170,0.0
2231,0.0
2,1, 1, 1, 0,23, 0.00,30.00,Sunday
17,601590.9182044333
65,293756.1263757824
504,307834.79182865086
1702,119654.85805565139
2169,0.0
2230,0.0
2,1, 1, 1, 0,23,30.00,60.00,Sunday
17,601590.9182044333
65,293756.1263757824
504,307834.79182865086
1702,119654.8580556514
2169,0.0
2230,0.0
2,1, 1, 1, 0,23, 0.00,60.00,Sunday
18,1203181.8364088666
1703,239309.71611130278
2170,0.0
2231,0.0
2,1, 1, 1, 0,24, 0.00,30.00,Sunday
17,152533.20341468218
65,42333.477968966865
504,110199.7254457153
1702,126974.5839042232
2169,0.0
2230,0.0
2,1, 1, 1, 0,24,30.00,60.00,Sunday
17,152533.20341468218
65,42333.477968966865
504,110199.7254457153
1702,126974.5839042232
2169,0.0
2230,0.0
2,1, 1, 1, 0,24, 0.00,60.00,Sunday
18,305066.40682936436
1703,253949.1678084464
2170,0.0
2231,0.0
3,1, 1, 1, 0,Sunday
19,21823829.925095256,58727.76483795633, 1,30,1917375.8731892435, 8,30
1704,20018307.32675022,37588.857316845766,11,30,1695585.7004181198, 8,60
2171,0.0,0.0, 1,30,0.0, 1,30
2232,0.0,0.0, 1,30,0.0, 1,30
2,2, 1, 2, 0, 1, 0.00,30.00,Monday
17,58727.76483795633
65,0.0
504,58727.76483795633
1702,154263.90227889258
2169,0.0
2230,0.0
2,2, 1, 2, 0, 1,30.00,60.00,Monday
17,58727.76483795633
65,0.0
504,58727.76483795633
1702,154263.90227889258
2169,0.0
2230,0.0
2,2, 1, 2, 0, 1, 0.00,60.00,Monday
18,117455.52967591266
1703,308527.80455778516
2170,0.0
2231,0.0
2,2, 1, 2, 0, 2, 0.00,30.00,Monday
17,58727.76483795633
65,0.0
504,58727.76483795633
1702,154263.90227889258
2169,0.0
2230,0.0
2,2, 1, 2, 0, 2,30.00,60.00,Monday
17,58727.76483795633
65,0.0
504,58727.76483795633
1702,154263.90227889258
2169,0.0
2230,0.0
2,2, 1, 2, 0, 2, 0.00,60.00,Monday
18,117455.52967591266
1703,308527.80455778516
2170,0.0
2231,0.0
2,2, 1, 2, 0, 3, 0.00,30.00,Monday
17,58727.76483795633
65,0.0
504,58727.76483795633
1702,154263.90227889258
2169,0.0
2230,0.0
2,2, 1, 2, 0, 3,30.00,60.00,Monday
17,58727.76483795633
65,0.0
504,58727.76483795633
1702,154263.90227889258
2169,0.0
2230,0.0
2,2, 1, 2, 0, 3, 0.00,60.00,Monday
18,117455.52967591266
1703,308527.80455778516
2170,0.0
2231,0.0
2,2, 1, 2, 0, 4, 0.00,30.00,Monday
17,58727.76483795633
65,0.0
504,58727.76483795633
1702,154263.90227889258
2169,0.0
2230,0.0
2,2, 1, 2, 0, 4,30.00,60.00,Monday
17,58727.76483795633
65,0.0
504,58727.76483795633
1702,161141.80837581295
2169,0.0
2230,0.0
2,2, 1, 2, 0, 4, 0.00,60.00,Monday
18,117455.52967591266
1703,315405.71065470553
2170,0.0
2231,0.0
2,2, 1, 2, 0, 5, 0.00,30.00,Monday
17,58727.76483795633
65,0.0
504,58727.76483795633
1702,164199.6869445005
2169,0.0
2230,0.0
2,2, 1, 2, 0, 5,30.00,60.00,Monday
17,58727.76483795633
65,0.0
504,58727.76483795633
1702,162347.02607379493
2169,0.0
2230,0.0
2,2, 1, 2, 0, 5, 0.00,60.00,Monday
18,117455.52967591266
1703,326546.7130182955
2170,0.0
2231,0.0
2,2, 1, 2, 0, 6, 0.00,30.00,Monday
17,58727.76483795633
65,0.0
504,58727.76483795633
1702,161904.87383313428
2169,0.0
2230,0.0
2,2, 1, 2, 0, 6,30.00,60.00,Monday
17,58727.76483795633
65,0.0
504,58727.76483795633
1702,159296.91593043142
2169,0.0
2230,0.0
2,2, 1, 2, 0, 6, 0.00,60.00,Monday
18,117455.52967591266
1703,321201.7897635657
2170,0.0
2231,0.0
2,2, 1, 2, 0, 7, 0.00,30.00,Monday
17,668470.2156142611
65,580414.0970325931
504,88056.11858166804
1702,498560.8574688026
2169,0.0
2230,0.0
2,2, 1, 2, 0, 7,30.00,60.00,Monday
17,668470.2156142611
65,580414.0970325931
504,88056.11858166804
1702,499835.8023902829
2169,0.0
2230,0.0
2,2, 1, 2, 0, 7, 0.00,60.00,Monday
18,1336940.4312285222
1703,998396.6598590855
2170,0.0
2231,0.0
2,2, 1, 2, 0, 8, 0.00,30.00,Monday
17,1914355.239550975
65,1165872.8175300914
504,748482.4220208836
1702,1680375.678166627
2169,0.0
2230,0.0
2,2, 1, 2, 0, 8,30.00,60.00,Monday
17,1065396.1047705624
65,316913.6827496786
504,748482.4220208836
1702,1681556.4065414846
2169,0.0
2230,0.0
2,2, 1, 2, 0, 8, 0.00,60.00,Monday
18,2979751.3443215373
1703,3361932.0847081114
2170,0.0
2231,0.0
2,2, 1, 2, 0, 9, 0.00,30.00,Monday
17,1106457.5641476433
65,255694.16896394448
504,850763.3951836987
1702,1641809.702596904
2169,0.0
2230,0.0
2,2, 1, 2, 0, 9,30.00,60.00,Monday
17,1080199.9316273807
65,229436.53644368198
504,850763.3951836987
1702,1641809.7025969035
2169,0.0
2230,0.0
2,2, 1, 2, 0, 9, 0.00,60.00,Monday
18,2186657.495775024
1703,3283619.4051938076
2170,0.0
2231,0.0
2,2, 1, 2, 0,10, 0.00,30.00,Monday
17,869710.8233769017
65,209212.18527546176
504,660498.6381014398
1702,592127.6691284887
2169,0.0
2230,0.0
2,2, 1, 2, 0,10,30.00,60.00,Monday
17,855854.4045446219
65,195355.76644318202
504,660498.6381014398
1702,592127.6691284887
2169,0.0
2230,0.0
2,2, 1, 2, 0,10, 0.00,60.00,Monday
18,1725565.2279215236
1703,1184255.3382569775
2170,0.0
2231,0.0
2,2, 1, 2, 0,11, 0.00,30.00,Monday
17,58727.76483795633
65,0.0
504,58727.76483795633
1702,0.0
2169,0.0
2230,0.0
2,2, 1, 2, 0,11,30.00,60.00,Monday
17,58727.76483795633
65,0.0
504,58727.76483795633
1702,0.0
2169,0.0
2230,0.0
2,2, 1, 2, 0,11, 0.00,60.00,Monday
18,117455.52967591266
1703,0.0
2170,0.0
2231,0.0
2,2, 1, 2, 0,12, 0.00,30.00,Monday
17,58727.76483795633
65,0.0
504,58727.76483795633
1702,0.0
2169,0.0
2230,0.0
2,2, 1, 2, 0,12,30.00,60.00,Monday
17,58727.76483795633
65,0.0
504,58727.76483795633
1702,0.0
2169,0.0
2230,0.0
2,2, 1, 2, 0,12, 0.00,60.00,Monday
18,117455.52967591266
1703,0.0
2170,0.0
2231,0.0
2,2, 1, 2, 0,13, 0.00,30.00,Monday
17,58727.76483795633
65,0.0
504,58727.76483795633
1702,0.0
2169,0.0
2230,0.0
2,2, 1, 2, 0,13,30.00,60.00,Monday
17,58727.76483795633
65,0.0
504,58727.76483795633
1702,0.0
2169,0.0
2230,0.0
2,2, 1, 2, 0,13, 0.00,60.00,Monday
18,117455.52967591266
1703,0.0
2170,0.0
2231,0.0
2,2, 1, 2, 0,14, 0.00,30.00,Monday
17,58727.76483795633
65,0.0
504,58727.76483795633
1702,0.0
2169,0.0
2230,0.0
2,2, 1, 2, 0,14,30.00,60.00,Monday
17,58727.76483795633
65,0.0
504,58727.76483795633
1702,0.0
2169,0.0
2230,0.0
2,2, 1, 2, 0,14, 0.00,60.00,Monday
18,117455.52967591266
1703,0.0
2170,0.0
2231,0.0
2,2, 1, 2, 0,15, 0.00,30.00,Monday
17,58727.76483795633
65,0.0
504,58727.76483795633
1702,0.0
2169,0.0
2230,0.0
2,2, 1, 2, 0,15,30.00,60.00,Monday
17,58727.76483795633
65,0.0
504,58727.76483795633
1702,0.0
2169,0.0
2230,0.0
2,2, 1, 2, 0,15, 0.00,60.00,Monday
18,117455.52967591266
1703,0.0
2170,0.0
2231,0.0
2,2, 1, 2, 0,16, 0.00,30.00,Monday
17,58727.76483795633
65,0.0
504,58727.76483795633
1702,0.0
2169,0.0
2230,0.0
2,2, 1, 2, 0,16,30.00,60.00,Monday
17,58727.76483795633
65,0.0
504,58727.76483795633
1702,0.0
2169,0.0
2230,0.0
2,2, 1, 2, 0,16, 0.00,60.00,Monday
18,117455.52967591266
1703,0.0
2170,0.0
2231,0.0
2,2, 1, 2, 0,17, 0.00,30.00,Monday
17,58727.76483795633
65,0.0
504,58727.76483795633
1702,0.0
2169,0.0
2230,0.0
2,2, 1, 2, 0,17,30.00,60.00,Monday
17,58727.76483795633
65,0.0
504,58727.76483795633
1702,0.0
2169,0.0
2230,0.0
2,2, 1, 2, 0,17, 0.00,60.00,Monday
18,117455.52967591266
1703,0.0
2170,0.0
2231,0.0
2,2, 1, 2, 0,18, 0.00,30.00,Monday
17,109869.15390734895
65,0.0
504,109869.15390734895
1702,0.0
2169,0.0
2230,0.0
2,2, 1, 2, 0,18,30.00,60.00,Monday
17,109869.15390734895
65,0.0
504,109869.15390734895
1702,0.0
2169,0.0
2230,0.0
2,2, 1, 2, 0,18, 0.00,60.00,Monday
18,219738.3078146979
1703,0.0
2170,0.0
2231,0.0
2,2, 1, 2, 0,19, 0.00,30.00,Monday
17,800081.3474967581
65,580414.0970325931
504,219667.25046416497
1702,674077.3719324612
2169,0.0
2230,0.0
2,2, 1, 2, 0,19,30.00,60.00,Monday
17,800081.3474967581
65,580414.0970325931
504,219667.25046416497
1702,674077.3719324612
2169,0.0
2230,0.0
2,2, 1, 2, 0,19, 0.00,60.00,Monday
18,1600162.6949935162
1703,1348154.7438649223
2170,0.0
2231,0.0
2,2, 1, 2, 0,20, 0.00,30.00,Monday
17,1297664.4364178923
65,874170.2234083756
504,423494.2130095168
1702,1399172.540497374
2169,0.0
2230,0.0
2,2, 1, 2, 0,20,30.00,60.00,Monday
17,1297664.4364178923
65,874170.2234083756
504,423494.2130095168
1702,1399172.540497374
2169,0.0
2230,0.0
2,2, 1, 2, 0,20, 0.00,60.00,Monday
18,2595328.8728357847
1703,2798345.080994748
2170,0.0
2231,0.0
2,2, 1, 2, 0,21, 0.00,30.00,Monday
17,1348805.825487285
65,874170.2234083756
504,474635.6020789094
1702,1399172.540497374
2169,0.0
2230,0.0
2,2, 1, 2, 0,21,30.00,60.00,Monday
17,1348805.825487285
65,874170.2234083756
504,474635.6020789094
1702,1399172.540497374
2169,0.0
2230,0.0
2,2, 1, 2, 0,21, 0.00,60.00,Monday
18,2697611.65097457
1703,2798345.080994748
2170,0.0
2231,0.0
2,2, 1, 2, 0,22, 0.00,30.00,Monday
17,1266687.4568542454
65,874170.2234083756
504,392517.23344586964
1702,455464.2197919284
2169,0.0
2230,0.0
2,2, 1, 2, 0,22,30.00,60.00,Monday
17,1266687.4568542454
65,874170.2234083756
504,392517.23344586964
1702,455464.2197919284
2169,0.0
2230,0.0
2,2, 1, 2, 0,22, 0.00,60.00,Monday
18,2533374.913708491
1703,910928.4395838568
2170,0.0
2231,0.0
2,2, 1, 2, 0,23, 0.00,30.00,Monday
17,599938.2017221438
65,293756.1263757824
504,306182.07534636126
1702,89583.77220217479
2169,0.0
2230,0.0
2,2, 1, 2, 0,23,30.00,60.00,Monday
17,599938.2017221438
65,293756.1263757824
504,306182.07534636126
1702,89583.77220217479
2169,0.0
2230,0.0
2,2, 1, 2, 0,23, 0.00,60.00,Monday
18,1199876.4034442876
1703,179167.54440434958
2170,0.0
2231,0.0
2,2, 1, 2, 0,24, 0.00,30.00,Monday
17,109869.15390734895
65,0.0
504,109869.15390734895
1702,115697.92670916946
2169,0.0
2230,0.0
2,2, 1, 2, 0,24,30.00,60.00,Monday
17,109869.15390734895
65,0.0
504,109869.15390734895
1702,115697.92670916946
2169,0.0
2230,0.0
2,2, 1, 2, 0,24, 0.00,60.00,Monday
18,219738.3078146979
1703,231395.85341833893
2170,0.0
2231,0.0
3,2, 1, 2, 0,Monday
19,20821667.536619514,58727.76483795633, 1,30,1914355.239550975, 8,30
1704,18983277.858388867,0.0,11,30,1681556.4065414846, 8,60
2171,0.0,0.0, 1,30,0.0, 1,30
2232,0.0,0.0, 1,30,0.0, 1,30
2,3, 1, 3, 0, 1, 0.00,30.00,Tuesday
17,58727.76483795633
65,0.0
504,58727.76483795633
1702,154263.90227889258
2169,0.0
2230,0.0
2,3, 1, 3, 0, 1,30.00,60.00,Tuesday
17,58727.76483795633
65,0.0
504,58727.76483795633
1702,154263.90227889258
2169,0.0
2230,0.0
2,3, 1, 3, 0, 1, 0.00,60.00,Tuesday
18,117455.52967591266
1703,308527.80455778516
2170,0.0
2231,0.0
2,3, 1, 3, 0, 2, 0.00,30.00,Tuesday
17,58727.76483795633
65,0.0
504,58727.76483795633
1702,154263.90227889258
2169,0.0
2230,0.0
2,3, 1, 3, 0, 2,30.00,60.00,Tuesday
17,58727.76483795633
65,0.0
504,58727.76483795633
1702,154263.90227889258
2169,0.0
2230,0.0
2,3, 1, 3, 0, 2, 0.00,60.00,Tuesday
18,117455.52967591266
1703,308527.80455778516
2170,0.0
2231,0.0
2,3, 1, 3, 0, 3, 0.00,30.00,Tuesday
17,58727.76483795633
65,0.0
504,58727.76483795633
1702,154263.90227889258
2169,0.0
2230,0.0
2,3, 1, 3, 0, 3,30.00,60.00,Tuesday
17,58727.76483795633
65,0.0
504,58727.76483795633
1702,154263.90227889258
2169,0.0
2230,0.0
2,3, 1, 3, 0, 3, 0.00,60.00,Tuesday
18,117455.52967591266
1703,308527.80455778516
2170,0.0
2231,0.0
2,3, 1, 3, 0, 4, 0.00,30.00,Tuesday
17,58727.76483795633
65,0.0
504,58727.76483795633
1702,154263.90227889258
2169,0.0
2230,0.0
2,3, 1, 3, 0, 4,30.00,60.00,Tuesday
17,58727.76483795633
65,0.0
504,58727.76483795633
1702,154263.90227889258
2169,0.0
2230,0.0
2,3, 1, 3, 0, 4, 0.00,60.00,Tuesday
18,117455.52967591266
1703,308527.80455778516
2170,0.0
2231,0.0
2,3, 1, 3, 0, 5, 0.00,30.00,Tuesday
17,58727.76483795633
65,0.0
504,58727.76483795633
1702,154263.90227889258
2169,0.0
2230,0.0
2,3, 1, 3, 0, 5,30.00,60.00,Tuesday
17,58727.76483795633
65,0.0
504,58727.76483795633
1702,154263.90227889258
2169,0.0
2230,0.0
2,3, 1, 3, 0, 5, 0.00,60.00,Tuesday
18,117455.52967591266
1703,308527.80455778516
2170,0.0
2231,0.0
2,3, 1, 3, 0, 6, 0.00,30.00,Tuesday
17,58727.76483795633
65,0.0
504,58727.76483795633
1702,154263.90227889258
2169,0.0
2230,0.0
2,3, 1, 3, 0, 6,30.00,60.00,Tuesday
17,58727.76483795633
65,0.0
504,58727.76483795633
1702,154263.90227889258
2169,0.0
2230,0.0
2,3, 1, 3, 0, 6, 0.00,60.00,Tuesday
18,117455.52967591266
1703,308527.80455778516
2170,0.0
2231,0.0
2,3, 1, 3, 0, 7, 0.00,30.00,Tuesday
17,668470.2156142611
65,580414.0970325931
504,88056.11858166804
1702,491302.5882451232
2169,0.0
2230,0.0
2,3, 1, 3, 0, 7,30.00,60.00,Tuesday
17,668470.2156142611
65,580414.0970325931
504,88056.11858166804
1702,491302.5882451232
2169,0.0
2230,0.0
2,3, 1, 3, 0, 7, 0.00,60.00,Tuesday
18,1336940.4312285222
1703,982605.1764902464
2170,0.0
2231,0.0
2,3, 1, 3, 0, 8, 0.00,30.00,Tuesday
17,1914604.1722344744
65,1166121.750213591
504,748482.4220208836
1702,1680375.6781666267
2169,0.0
2230,0.0
2,3, 1, 3, 0, 8,30.00,60.00,Tuesday
17,1065761.4759765952
65,317279.0539557116
504,748482.4220208836
1702,1680375.678166627
2169,0.0
2230,0.0
2,3, 1, 3, 0, 8, 0.00,60.00,Tuesday
18,2980365.6482110694
1703,3360751.356333254
2170,0.0
2231,0.0
2,3, 1, 3, 0, 9, 0.00,30.00,Tuesday
17,1107100.8529491844
65,256337.45776548563
504,850763.3951836987
1702,1641809.702596904
2169,0.0
2230,0.0
2,3, 1, 3, 0, 9,30.00,60.00,Tuesday
17,1076053.4753409233
65,225290.08015722467
504,850763.3951836987
1702,1641809.702596904
2169,0.0
2230,0.0
2,3, 1, 3, 0, 9, 0.00,60.00,Tuesday
18,2183154.3282901077
1703,3283619.405193808
2170,0.0
2231,0.0
2,3, 1, 3, 0,10, 0.00,30.00,Tuesday
17,863267.8147992784
65,202769.17669783853
504,660498.6381014398
1702,592127.6691284887
2169,0.0
2230,0.0
2,3, 1, 3, 0,10,30.00,60.00,Tuesday
17,853934.9967578289
65,193436.35865638906
504,660498.6381014398
1702,592127.6691284887
2169,0.0
2230,0.0
2,3, 1, 3, 0,10, 0.00,60.00,Tuesday
18,1717202.8115571071
1703,1184255.3382569775
2170,0.0
2231,0.0
2,3, 1, 3, 0,11, 0.00,30.00,Tuesday
17,58727.76483795633
65,0.0
504,58727.76483795633
1702,0.0
2169,0.0
2230,0.0
2,3, 1, 3, 0,11,30.00,60.00,Tuesday
17,58727.76483795633
65,0.0
504,58727.76483795633
1702,0.0
2169,0.0
2230,0.0
2,3, 1, 3, 0,11, 0.00,60.00,Tuesday
18,117455.52967591266
1703,0.0
2170,0.0
2231,0.0
2,3, 1, 3, 0,12, 0.00,30.00,Tuesday
17,58727.76483795633
65,0.0
504,58727.76483795633
1702,0.0
2169,0.0
2230,0.0
2,3, 1, 3, 0,12,30.00,60.00,Tuesday
17,58727.76483795633
65,0.0
504,58727.76483795633
1702,0.0
2169,0.0
2230,0.0
2,3, 1, 3, 0,12, 0.00,60.00,Tuesday
18,117455.52967591266
1703,0.0
2170,0.0
2231,0.0
2,3, 1, 3, 0,13, 0.00,30.00,Tuesday
17,58727.76483795633
65,0.0
504,58727.76483795633
1702,0.0
2169,0.0
2230,0.0
2,3, 1, 3, 0,13,30.00,60.00,Tuesday
17,58727.76483795633
65,0.0
504,58727.76483795633
1702,0.0
2169,0.0
2230,0.0
2,3, 1, 3, 0,13, 0.00,60.00,Tuesday
18,117455.52967591266
1703,0.0
2170,0.0
2231,0.0
2,3, 1, 3, 0,14, 0.00,30.00,Tuesday
17,58727.76483795633
65,0.0
504,58727.76483795633
1702,0.0
2169,0.0
2230,0.0
2,3, 1, 3, 0,14,30.00,60.00,Tuesday
17,58727.76483795633
65,0.0
504,58727.76483795633
1702,0.0
2169,0.0
2230,0.0
2,3, 1, 3, 0,14, 0.00,60.00,Tuesday
18,117455.52967591266
1703,0.0
2170,0.0
2231,0.0
2,3, 1, 3, 0,15, 0.00,30.00,Tuesday
17,58727.76483795633
65,0.0
504,58727.76483795633
1702,0.0
2169,0.0
2230,0.0
2,3, 1, 3, 0,15,30.00,60.00,Tuesday
17,58727.76483795633
65,0.0
504,58727.76483795633
1702,0.0
2169,0.0
2230,0.0
2,3, 1, 3, 0,15, 0.00,60.00,Tuesday
18,117455.52967591266
1703,0.0
2170,0.0
2231,0.0
2,3, 1, 3, 0,16, 0.00,30.00,Tuesday
17,58727.76483795633
65,0.0
504,58727.76483795633
1702,0.0
2169,0.0
2230,0.0
2,3, 1, 3, 0,16,30.00,60.00,Tuesday
17,58727.76483795633
65,0.0
504,58727.76483795633
1702,0.0
2169,0.0
2230,0.0
2,3, 1, 3, 0,16, 0.00,60.00,Tuesday
18,117455.52967591266
1703,0.0
2170,0.0
2231,0.0
2,3, 1, 3, 0,17, 0.00,30.00,Tuesday
17,58727.76483795633
65,0.0
504,58727.76483795633
1702,0.0
2169,0.0
2230,0.0
2,3, 1, 3, 0,17,30.00,60.00,Tuesday
17,58727.76483795633
65,0.0
504,58727.76483795633
1702,0.0
2169,0.0
2230,0.0
2,3, 1, 3, 0,17, 0.00,60.00,Tuesday
18,117455.52967591266
1703,0.0
2170,0.0
2231,0.0
2,3, 1, 3, 0,18, 0.00,30.00,Tuesday
17,109869.15390734895
65,0.0
504,109869.15390734895
1702,0.0
2169,0.0
2230,0.0
2,3, 1, 3, 0,18,30.00,60.00,Tuesday
17,109869.15390734895
65,0.0
504,109869.15390734895
1702,0.0
2169,0.0
2230,0.0
2,3, 1, 3, 0,18, 0.00,60.00,Tuesday
18,219738.3078146979
1703,0.0
2170,0.0
2231,0.0
2,3, 1, 3, 0,19, 0.00,30.00,Tuesday
17,800081.3474967581
65,580414.0970325931
504,219667.25046416497
1702,674077.3719324612
2169,0.0
2230,0.0
2,3, 1, 3, 0,19,30.00,60.00,Tuesday
17,800081.3474967581
65,580414.0970325931
504,219667.25046416497
1702,674077.3719324612
2169,0.0
2230,0.0
2,3, 1, 3, 0,19, 0.00,60.00,Tuesday
18,1600162.6949935162
1703,1348154.7438649223
2170,0.0
2231,0.0
2,3, 1, 3, 0,20, 0.00,30.00,Tuesday
17,1297664.4364178923
65,874170.2234083756
504,423494.2130095168
1702,1399172.540497374
2169,0.0
2230,0.0
2,3, 1, 3, 0,20,30.00,60.00,Tuesday
17,1297664.4364178923
65,874170.2234083756
504,423494.2130095168
1702,1399172.540497374
2169,0.0
2230,0.0
2,3, 1, 3, 0,20, 0.00,60.00,Tuesday
18,2595328.8728357847
1703,2798345.080994748
2170,0.0
2231,0.0
2,3, 1, 3, 0,21, 0.00,30.00,Tuesday
17,1348805.825487285
65,874170.2234083756
504,474635.6020789094
1702,1399172.540497374
2169,0.0
2230,0.0
2,3, 1, 3, 0,21,30.00,60.00,Tuesday
17,1348805.825487285
65,874170.2234083756
504,474635.6020789094
1702,1399172.540497374
2169,0.0
2230,0.0
2,3, 1, 3, 0,21, 0.00,60.00,Tuesday
18,2697611.65097457
1703,2798345.080994748
2170,0.0
2231,0.0
2,3, 1, 3, 0,22, 0.00,30.00,Tuesday
17,1266687.4568542454
65,874170.2234083756
504,392517.23344586964
1702,455464.2197919284
2169,0.0
2230,0.0
2,3, 1, 3, 0,22,30.00,60.00,Tuesday
17,1266687.4568542454
65,874170.2234083756
504,392517.23344586964
1702,455464.2197919284
2169,0.0
2230,0.0
2,3, 1, 3, 0,22, 0.00,60.00,Tuesday
18,2533374.913708491
1703,910928.4395838568
2170,0.0
2231,0.0
2,3, 1, 3, 0,23, 0.00,30.00,Tuesday
17,599938.2017221438
65,293756.1263757824
504,306182.07534636126
1702,89583.77220217479
2169,0.0
2230,0.0
2,3, 1, 3, 0,23,30.00,60.00,Tuesday
17,599938.2017221438
65,293756.1263757824
504,306182.07534636126
1702,89583.77220217479
2169,0.0
2230,0.0
2,3, 1, 3, 0,23, 0.00,60.00,Tuesday
18,1199876.4034442876
1703,179167.54440434958
2170,0.0
2231,0.0
2,3, 1, 3, 0,24, 0.00,30.00,Tuesday
17,109869.15390734895
65,0.0
504,109869.15390734895
1702,115697.92670916946
2169,0.0
2230,0.0
2,3, 1, 3, 0,24,30.00,60.00,Tuesday
17,109869.15390734895
65,0.0
504,109869.15390734895
1702,115697.92670916946
2169,0.0
2230,0.0
2,3, 1, 3, 0,24, 0.00,60.00,Tuesday
18,219738.3078146979
1703,231395.85341833893
2170,0.0
2231,0.0
3,3, 1, 3, 0,Tuesday
19,20810416.256659716,58727.76483795633, 1,30,1914604.1722344744, 8,30